 Entering Gaussian System, Link 0=g03
 Input=FORMA_CAM-b3lyp_AUG-cc-pVTZ.com
 Output=FORMA_CAM-b3lyp_AUG-cc-pVTZ.log
 Initial command:
 /apps/gaussian/g09_c01/g09/l1.exe /tmp/pbs.8910282.cx1b/Gau-18286.inp -scrdir=/tmp/pbs.8910282.cx1b/
 Entering Link 1 = /apps/gaussian/g09_c01/g09/l1.exe PID=     18294.
  
 Copyright (c) 1988,1990,1992,1993,1995,1998,2003,2009,2011,
            Gaussian, Inc.  All Rights Reserved.
  
 This is part of the Gaussian(R) 09 program.  It is based on
 the Gaussian(R) 03 system (copyright 2003, Gaussian, Inc.),
 the Gaussian(R) 98 system (copyright 1998, Gaussian, Inc.),
 the Gaussian(R) 94 system (copyright 1995, Gaussian, Inc.),
 the Gaussian 92(TM) system (copyright 1992, Gaussian, Inc.),
 the Gaussian 90(TM) system (copyright 1990, Gaussian, Inc.),
 the Gaussian 88(TM) system (copyright 1988, Gaussian, Inc.),
 the Gaussian 86(TM) system (copyright 1986, Carnegie Mellon
 University), and the Gaussian 82(TM) system (copyright 1983,
 Carnegie Mellon University). Gaussian is a federally registered
 trademark of Gaussian, Inc.
  
 This software contains proprietary and confidential information,
 including trade secrets, belonging to Gaussian, Inc.
  
 This software is provided under written license and may be
 used, copied, transmitted, or stored only in accord with that
 written license.
  
 The following legend is applicable only to US Government
 contracts under FAR:
  
                    RESTRICTED RIGHTS LEGEND
  
 Use, reproduction and disclosure by the US Government is
 subject to restrictions as set forth in subparagraphs (a)
 and (c) of the Commercial Computer Software - Restricted
 Rights clause in FAR 52.227-19.
  
 Gaussian, Inc.
 340 Quinnipiac St., Bldg. 40, Wallingford CT 06492
  
  
 ---------------------------------------------------------------
 Warning -- This program may not be used in any manner that
 competes with the business of Gaussian, Inc. or will provide
 assistance to any competitor of Gaussian, Inc.  The licensee
 of this program is prohibited from giving any competitor of
 Gaussian, Inc. access to this program.  By using this program,
 the user acknowledges that Gaussian, Inc. is engaged in the
 business of creating and licensing software in the field of
 computational chemistry and represents and warrants to the
 licensee that it is not a competitor of Gaussian, Inc. and that
 it will not use this program in any manner prohibited above.
 ---------------------------------------------------------------
  

 Cite this work as:
 Gaussian 09, Revision C.01,
 M. J. Frisch, G. W. Trucks, H. B. Schlegel, G. E. Scuseria, 
 M. A. Robb, J. R. Cheeseman, G. Scalmani, V. Barone, B. Mennucci, 
 G. A. Petersson, H. Nakatsuji, M. Caricato, X. Li, H. P. Hratchian, 
 A. F. Izmaylov, J. Bloino, G. Zheng, J. L. Sonnenberg, M. Hada, 
 M. Ehara, K. Toyota, R. Fukuda, J. Hasegawa, M. Ishida, T. Nakajima, 
 Y. Honda, O. Kitao, H. Nakai, T. Vreven, J. A. Montgomery, Jr., 
 J. E. Peralta, F. Ogliaro, M. Bearpark, J. J. Heyd, E. Brothers, 
 K. N. Kudin, V. N. Staroverov, T. Keith, R. Kobayashi, J. Normand, 
 K. Raghavachari, A. Rendell, J. C. Burant, S. S. Iyengar, J. Tomasi, 
 M. Cossi, N. Rega, J. M. Millam, M. Klene, J. E. Knox, J. B. Cross, 
 V. Bakken, C. Adamo, J. Jaramillo, R. Gomperts, R. E. Stratmann, 
 O. Yazyev, A. J. Austin, R. Cammi, C. Pomelli, J. W. Ochterski, 
 R. L. Martin, K. Morokuma, V. G. Zakrzewski, G. A. Voth, 
 P. Salvador, J. J. Dannenberg, S. Dapprich, A. D. Daniels, 
 O. Farkas, J. B. Foresman, J. V. Ortiz, J. Cioslowski, 
 and D. J. Fox, Gaussian, Inc., Wallingford CT, 2010.
 
 ******************************************
 Gaussian 09:  EM64L-G09RevC.01 23-Sep-2011
                26-Feb-2015 
 ******************************************
 %Chk=FORMA_CAM-b3lyp_AUG-cc-pVTZ.chk
 %Mem=8Gb
 %nproc=8
 Will use up to    8 processors via shared memory.
 ----------------------------------------------------------------------
 #p opt(VeryTight,CalcAll,Raman) Integral(Grid=UltraFine) CAM-b3lyp/AUG
 -cc-pVTZ
 ----------------------------------------------------------------------
 1/7=1,10=4,14=-1,18=20,19=15,26=3,38=1/1,3;
 2/9=110,12=2,17=6,18=5,40=1/2;
 3/5=16,6=1,7=10,11=2,16=1,25=1,30=1,71=2,74=-40,75=-5/1,2,3;
 4//1;
 5/5=2,38=5/2;
 8/6=4,10=90,11=11/1;
 10/13=10,15=4/2;
 11/6=3,8=1,9=11,15=111,16=1/1,2,10;
 10/6=1/2;
 6/7=2,8=2,9=2,10=2,18=1,28=1/1;
 7/10=1,25=1/1,2,3,16;
 1/7=1,10=4,14=-1,18=20,19=15/3(3);
 2/9=110/2;
 7/8=1,9=1,25=1,44=-1/16;
 99//99;
 2/9=110/2;
 3/5=16,6=1,7=10,11=2,16=1,25=1,30=1,71=2,74=-40,75=-5/1,2,3;
 4/5=5,16=3/1;
 5/5=2,38=5/2;
 8/6=4,10=90,11=11/1;
 10/13=10,15=4/2;
 11/6=3,8=1,9=11,15=111,16=1/1,2,10;
 10/6=1/2;
 7/10=1,25=1/1,2,3,16;
 1/7=1,10=4,14=-1,18=20,19=15/3(-9);
 2/9=110/2;
 6/7=2,8=2,9=2,10=2,18=1,19=2,28=1/1;
 7/8=1,9=1,25=1,44=-1/16;
 99//99;
 Leave Link    1 at Thu Feb 26 00:18:47 2015, MaxMem= 1073741824 cpu:       0.3
 (Enter /apps/gaussian/g09_c01/g09/l101.exe)
 ----------------------------------------------
 Autjob by noodles.sh | Great noodly basis sets
 ----------------------------------------------
 Charge =  1 Multiplicity = 1
 Symbolic Z-Matrix:
 C                     0.        0.42727   0. 
 H                     0.        1.51386   0. 
 N                     1.16818  -0.17499   0. 
 H                     2.0221    0.37151   0. 
 H                     1.27341  -1.18533   0. 
 N                    -1.16818  -0.17499   0. 
 H                    -1.27341  -1.18533   0. 
 H                    -2.0221    0.37151   0. 
 
 NAtoms=      8 NQM=        0 NQMF=       0 NMMI=      8 NMMIF=      0
                NMic=       0 NMicF=      0.
                    Isotopes and Nuclear Properties:
 (Nuclear quadrupole moments (NQMom) in fm**2, nuclear magnetic moments (NMagM)
  in nuclear magnetons)

  Atom         1           2           3           4           5           6           7           8
 IAtWgt=          12           1          14           1           1          14           1           1
 AtmWgt=  12.0000000   1.0078250  14.0030740   1.0078250   1.0078250  14.0030740   1.0078250   1.0078250
 NucSpn=           0           1           2           1           1           2           1           1
 AtZEff=   0.0000000   0.0000000   0.0000000   0.0000000   0.0000000   0.0000000   0.0000000   0.0000000
 NQMom=    0.0000000   0.0000000   2.0440000   0.0000000   0.0000000   2.0440000   0.0000000   0.0000000
 NMagM=    0.0000000   2.7928460   0.4037610   2.7928460   2.7928460   0.4037610   2.7928460   2.7928460
 Leave Link  101 at Thu Feb 26 00:18:47 2015, MaxMem= 1073741824 cpu:       0.9
 (Enter /apps/gaussian/g09_c01/g09/l103.exe)

 GradGradGradGradGradGradGradGradGradGradGradGradGradGradGradGradGradGrad
 Berny optimization.
 Initialization pass.
                           ----------------------------
                           !    Initial Parameters    !
                           ! (Angstroms and Degrees)  !
 --------------------------                            --------------------------
 ! Name  Definition              Value          Derivative Info.                !
 --------------------------------------------------------------------------------
 ! R1    R(1,2)                  1.0866         calculate D2E/DX2 analytically  !
 ! R2    R(1,3)                  1.3143         calculate D2E/DX2 analytically  !
 ! R3    R(1,6)                  1.3143         calculate D2E/DX2 analytically  !
 ! R4    R(3,4)                  1.0138         calculate D2E/DX2 analytically  !
 ! R5    R(3,5)                  1.0158         calculate D2E/DX2 analytically  !
 ! R6    R(6,7)                  1.0158         calculate D2E/DX2 analytically  !
 ! R7    R(6,8)                  1.0138         calculate D2E/DX2 analytically  !
 ! A1    A(2,1,3)              117.2736         calculate D2E/DX2 analytically  !
 ! A2    A(2,1,6)              117.2736         calculate D2E/DX2 analytically  !
 ! A3    A(3,1,6)              125.4529         calculate D2E/DX2 analytically  !
 ! A4    A(1,3,4)              120.1077         calculate D2E/DX2 analytically  !
 ! A5    A(1,3,5)              123.2199         calculate D2E/DX2 analytically  !
 ! A6    A(4,3,5)              116.6724         calculate D2E/DX2 analytically  !
 ! A7    A(1,6,7)              123.2199         calculate D2E/DX2 analytically  !
 ! A8    A(1,6,8)              120.1077         calculate D2E/DX2 analytically  !
 ! A9    A(7,6,8)              116.6724         calculate D2E/DX2 analytically  !
 ! D1    D(2,1,3,4)              0.0            calculate D2E/DX2 analytically  !
 ! D2    D(2,1,3,5)            180.0            calculate D2E/DX2 analytically  !
 ! D3    D(6,1,3,4)            180.0            calculate D2E/DX2 analytically  !
 ! D4    D(6,1,3,5)              0.0            calculate D2E/DX2 analytically  !
 ! D5    D(2,1,6,7)            180.0            calculate D2E/DX2 analytically  !
 ! D6    D(2,1,6,8)              0.0            calculate D2E/DX2 analytically  !
 ! D7    D(3,1,6,7)              0.0            calculate D2E/DX2 analytically  !
 ! D8    D(3,1,6,8)            180.0            calculate D2E/DX2 analytically  !
 --------------------------------------------------------------------------------
 Trust Radius=3.00D-01 FncErr=1.00D-07 GrdErr=1.00D-06
 Number of steps in this run=     34 maximum allowed number of steps=    100.
 GradGradGradGradGradGradGradGradGradGradGradGradGradGradGradGradGradGrad

 Leave Link  103 at Thu Feb 26 00:18:47 2015, MaxMem= 1073741824 cpu:       0.0
 (Enter /apps/gaussian/g09_c01/g09/l202.exe)
                          Input orientation:                          
 ---------------------------------------------------------------------
 Center     Atomic      Atomic             Coordinates (Angstroms)
 Number     Number       Type             X           Y           Z
 ---------------------------------------------------------------------
      1          6           0        0.000000    0.427270    0.000000
      2          1           0        0.000000    1.513864    0.000000
      3          7           0        1.168180   -0.174990    0.000000
      4          1           0        2.022103    0.371511    0.000000
      5          1           0        1.273414   -1.185325    0.000000
      6          7           0       -1.168180   -0.174990    0.000000
      7          1           0       -1.273414   -1.185325    0.000000
      8          1           0       -2.022103    0.371511    0.000000
 ---------------------------------------------------------------------
                    Distance matrix (angstroms):
                    1          2          3          4          5
     1  C    0.000000
     2  H    1.086594   0.000000
     3  N    1.314291   2.053502   0.000000
     4  H    2.022872   2.322471   1.013828   0.000000
     5  H    2.054762   2.984494   1.015801   1.727505   0.000000
     6  N    1.314291   2.053502   2.336360   3.236753   2.642377
     7  H    2.054762   2.984494   2.642377   3.644746   2.546828
     8  H    2.022872   2.322471   3.236753   4.044206   3.644746
                    6          7          8
     6  N    0.000000
     7  H    1.015801   0.000000
     8  H    1.013828   1.727505   0.000000
 Stoichiometry    CH5N2(1+)
 Framework group  C2V[C2(CH),SGV(H4N2)]
 Deg. of freedom     7
 Full point group                 C2V     NOp   4
 Largest Abelian subgroup         C2V     NOp   4
 Largest concise Abelian subgroup C2      NOp   2
                         Standard orientation:                         
 ---------------------------------------------------------------------
 Center     Atomic      Atomic             Coordinates (Angstroms)
 Number     Number       Type             X           Y           Z
 ---------------------------------------------------------------------
      1          6           0        0.000000    0.000000    0.427270
      2          1           0        0.000000    0.000000    1.513864
      3          7           0        0.000000    1.168180   -0.174990
      4          1           0        0.000000    2.022103    0.371511
      5          1           0        0.000000    1.273414   -1.185325
      6          7           0        0.000000   -1.168180   -0.174990
      7          1           0        0.000000   -1.273414   -1.185325
      8          1           0        0.000000   -2.022103    0.371511
 ---------------------------------------------------------------------
 Rotational constants (GHZ):     59.6815563     10.1627081      8.6839806
 Leave Link  202 at Thu Feb 26 00:18:47 2015, MaxMem= 1073741824 cpu:       0.0
 (Enter /apps/gaussian/g09_c01/g09/l301.exe)
 Standard basis: Aug-CC-pVTZ (5D, 7F)
 Ernie: Thresh=  0.10000D-02 Tol=  0.10000D-05 Strict=F.
 Ernie:  9 primitive shells out of 145 were deleted.
 There are    92 symmetry adapted basis functions of A1  symmetry.
 There are    37 symmetry adapted basis functions of A2  symmetry.
 There are    46 symmetry adapted basis functions of B1  symmetry.
 There are    78 symmetry adapted basis functions of B2  symmetry.
 Integral buffers will be    131072 words long.
 Raffenetti 2 integral format.
 Two-electron integral symmetry is turned on.
   253 basis functions,   351 primitive gaussians,   290 cartesian basis functions
    12 alpha electrons       12 beta electrons
       nuclear repulsion energy        79.4241064683 Hartrees.
 IExCor=20419 DFT=T Ex+Corr=CAM-B3LYP ExCW=0 ScaHFX=  1.000000
 ScaDFX=  1.000000  1.000000  1.000000  0.810000 ScalE2=  1.000000  1.000000
 IRadAn=      5 IRanWt=     -1 IRanGd=            0 ICorTp=0
  HFx wShort=  0.000000 wLong=  0.330000 cFull=  0.190000 cShort=  0.000000 cLong=  0.460000
  DFx wShort=  0.000000 wLong=  0.330000 cFull=  0.190000 cShort=  0.000000 cLong=  0.460000
 NAtoms=    8 NActive=    8 NUniq=    5 SFac= 2.56D+00 NAtFMM=   60 NAOKFM=F Big=F
 Leave Link  301 at Thu Feb 26 00:18:47 2015, MaxMem= 1073741824 cpu:       0.4
 (Enter /apps/gaussian/g09_c01/g09/l302.exe)
 NPDir=0 NMtPBC=     1 NCelOv=     1 NCel=       1 NClECP=     1 NCelD=      1
         NCelK=      1 NCelE2=     1 NClLst=     1 CellRange=     0.0.
 One-electron integrals computed using PRISM.
 One-electron integral symmetry used in STVInt
 NBasis=   253 RedAO= T  NBF=    92    37    46    78
 NBsUse=   253 1.00D-06 NBFU=    92    37    46    78
 Precomputing XC quadrature grid using
 IXCGrd= 2 IRadAn=           5 IRanWt=          -1 IRanGd=           0 AccXCQ= 0.00D+00.
 NRdTot=     686 NPtTot=      184860 NUsed=      189779 NTot=      189811
 NSgBfM=   290   290   290   290   290 NAtAll=     8     8.
 Leave Link  302 at Thu Feb 26 00:18:48 2015, MaxMem= 1073741824 cpu:       1.9
 (Enter /apps/gaussian/g09_c01/g09/l303.exe)
 DipDrv:  MaxL=1.
 Leave Link  303 at Thu Feb 26 00:18:48 2015, MaxMem= 1073741824 cpu:       0.4
 (Enter /apps/gaussian/g09_c01/g09/l401.exe)
 Harris functional with IExCor=20419 diagonalized for initial guess.
 ExpMin= 2.53D-02 ExpMax= 1.14D+04 ExpMxC= 3.89D+02 IAcc=3 IRadAn=         5 AccDes= 0.00D+00
 HarFok:  IExCor=20419 AccDes= 0.00D+00 IRadAn=         5 IDoV= 1
 ScaDFX=  1.000000  1.000000  1.000000  1.000000
 FoFCou: FMM=F IPFlag=           0 FMFlag=      100000 FMFlg1=           0
         NFxFlg=           0 DoJE=T BraDBF=F KetDBF=T FulRan=T
         Omega=  0.000000  0.000000  1.000000  0.000000  0.000000 ICntrl=     500 IOpCl=  0
         NMat0=    1 NMatS0=    1 NMatT0=    0 NMatD0=    1 NMtDS0=    0 NMtDT0=    0
         I1Cent=           4 NGrid=           0.
 Petite list used in FoFCou.
 Harris En= -144.704157317218    
 Initial guess orbital symmetries:
       Occupied  (B2) (A1) (A1) (A1) (B2) (A1) (A1) (B2) (B2) (A1)
                 (B1) (A2)
       Virtual   (A1) (B2) (A1) (B1) (A1) (B2) (B1) (A1) (B2) (A1)
                 (A2) (A1) (B2) (B1) (A1) (B2) (A1) (B2) (B1) (A1)
                 (B2) (A1) (A2) (B1) (B2) (A1) (A1) (A1) (B1) (A2)
                 (B2) (A1) (B2) (A1) (B1) (A1) (A2) (B2) (B2) (B2)
                 (A1) (A1) (B2) (B1) (A1) (B2) (B2) (A2) (A1) (B1)
                 (B1) (B2) (A1) (A2) (A1) (B2) (A1) (A1) (A1) (B1)
                 (B2) (A1) (A2) (B2) (A1) (B1) (B2) (A2) (A1) (B1)
                 (B2) (A2) (B1) (A1) (B2) (A1) (B2) (B1) (A1) (A2)
                 (A1) (B1) (B2) (A2) (A1) (B1) (B2) (A1) (A2) (A1)
                 (B2) (B2) (A2) (B2) (A1) (B1) (A1) (A2) (B2) (A1)
                 (B1) (B2) (B1) (B2) (A1) (A2) (A1) (B2) (B1) (B2)
                 (A1) (A1) (A2) (A1) (B1) (B2) (B2) (B1) (A1) (A2)
                 (B2) (B1) (A1) (A1) (A2) (A1) (B2) (B2) (A1) (A1)
                 (A2) (B1) (B2) (B1) (A1) (B2) (B2) (A2) (B1) (B2)
                 (A1) (B2) (A2) (A1) (A1) (B2) (B1) (B2) (A1) (A1)
                 (B2) (B1) (A1) (A2) (B2) (B1) (B1) (A1) (A2) (A1)
                 (B2) (A1) (A1) (B2) (A2) (B1) (B2) (A1) (A2) (A1)
                 (B2) (A1) (B1) (A2) (B1) (A1) (A2) (B1) (A2) (B2)
                 (B2) (B1) (A1) (A2) (A1) (B2) (A1) (B1) (B2) (B2)
                 (A1) (B1) (A1) (A2) (B1) (A1) (B2) (B2) (A2) (A1)
                 (B2) (A1) (B1) (B2) (B2) (A1) (A2) (B2) (B1) (B2)
                 (A1) (B1) (A2) (A1) (B1) (A1) (B2) (A1) (A2) (B2)
                 (A2) (B1) (B2) (A2) (A1) (B1) (B2) (A1) (B2) (A1)
                 (B2) (A1) (A1) (A1) (B2) (B2) (A1) (B2) (A1) (B2)
                 (A1)
 The electronic state of the initial guess is 1-A1.
 Leave Link  401 at Thu Feb 26 00:18:48 2015, MaxMem= 1073741824 cpu:       4.1
 (Enter /apps/gaussian/g09_c01/g09/l502.exe)
 Closed shell SCF:
 Requested convergence on RMS density matrix=1.00D-08 within 128 cycles.
 Requested convergence on MAX density matrix=1.00D-06.
 Requested convergence on             energy=1.00D-06.
 No special actions if energy rises.
 Using DIIS extrapolation, IDIIS=  1040.
 Integral symmetry usage will be decided dynamically.
       189694 words used for storage of precomputed grid.
 IEnd=      465070 IEndB=      465070 NGot=  1073741824 MDV=  1073377785
 LenX=  1073377785 LenY=  1073293244
 Fock matrices will be formed incrementally for  20 cycles.

 Cycle   1  Pass 1  IDiag  1:
 FoFJK:  IHMeth= 1 ICntrl=     0 DoSepK=T KAlg= 1 I1Cent= 0 FoldK=F
 FoFCou: FMM=F IPFlag=           0 FMFlag=      100000 FMFlg1=           0
         NFxFlg=           0 DoJE=T BraDBF=F KetDBF=F FulRan=T
         Omega=  0.000000  0.000000  1.000000  0.000000  0.000000 ICntrl=     500 IOpCl=  0
         NMat0=    1 NMatS0=    1 NMatT0=    0 NMatD0=    1 NMtDS0=    0 NMtDT0=    0
         I1Cent=           0 NGrid=           0.
 Petite list used in FoFCou.
 E= -150.333802685998    
 DIIS: error= 6.18D-02 at cycle   1 NSaved=   1.
 NSaved= 1 IEnMin= 1 EnMin= -150.333802685998     IErMin= 1 ErrMin= 6.18D-02
 ErrMax= 6.18D-02 EMaxC= 1.00D-01 BMatC= 2.07D-01 BMatP= 2.07D-01
 IDIUse=3 WtCom= 3.82D-01 WtEn= 6.18D-01
 Coeff-Com:  0.100D+01
 Coeff-En:   0.100D+01
 Coeff:      0.100D+01
 Gap=     0.411 Goal=   None    Shift=    0.000
 GapD=    0.411 DampG=2.000 DampE=0.500 DampFc=1.0000 IDamp=-1.
 RMSDP=1.67D-03 MaxDP=1.38D-01              OVMax= 7.10D-02

 Cycle   2  Pass 1  IDiag  1:
 RMSU=  1.18D-03    CP:  9.86D-01
 FoFJK:  IHMeth= 1 ICntrl=     0 DoSepK=T KAlg= 1 I1Cent= 0 FoldK=F
 E= -150.364827254348     Delta-E=       -0.031024568350 Rises=F Damp=F
 DIIS: error= 8.41D-03 at cycle   2 NSaved=   2.
 NSaved= 2 IEnMin= 2 EnMin= -150.364827254348     IErMin= 2 ErrMin= 8.41D-03
 ErrMax= 8.41D-03 EMaxC= 1.00D-01 BMatC= 1.13D-02 BMatP= 2.07D-01
 IDIUse=3 WtCom= 9.16D-01 WtEn= 8.41D-02
 Coeff-Com:  0.130D+00 0.870D+00
 Coeff-En:   0.000D+00 0.100D+01
 Coeff:      0.119D+00 0.881D+00
 Gap=     0.391 Goal=   None    Shift=    0.000
 RMSDP=3.19D-04 MaxDP=1.05D-02 DE=-3.10D-02 OVMax= 3.08D-02

 Cycle   3  Pass 1  IDiag  1:
 RMSU=  2.12D-04    CP:  9.83D-01  9.37D-01
 FoFJK:  IHMeth= 1 ICntrl=     0 DoSepK=T KAlg= 1 I1Cent= 0 FoldK=F
 E= -150.370115166965     Delta-E=       -0.005287912617 Rises=F Damp=F
 DIIS: error= 5.09D-03 at cycle   3 NSaved=   3.
 NSaved= 3 IEnMin= 3 EnMin= -150.370115166965     IErMin= 3 ErrMin= 5.09D-03
 ErrMax= 5.09D-03 EMaxC= 1.00D-01 BMatC= 3.85D-03 BMatP= 1.13D-02
 IDIUse=3 WtCom= 9.49D-01 WtEn= 5.09D-02
 Coeff-Com:  0.157D-01 0.379D+00 0.605D+00
 Coeff-En:   0.000D+00 0.232D+00 0.768D+00
 Coeff:      0.149D-01 0.372D+00 0.614D+00
 Gap=     0.390 Goal=   None    Shift=    0.000
 RMSDP=1.24D-04 MaxDP=4.07D-03 DE=-5.29D-03 OVMax= 1.34D-02

 Cycle   4  Pass 1  IDiag  1:
 RMSU=  5.81D-05    CP:  9.85D-01  9.51D-01  7.10D-01
 FoFJK:  IHMeth= 1 ICntrl=     0 DoSepK=T KAlg= 1 I1Cent= 0 FoldK=F
 E= -150.373338819144     Delta-E=       -0.003223652179 Rises=F Damp=F
 DIIS: error= 3.91D-04 at cycle   4 NSaved=   4.
 NSaved= 4 IEnMin= 4 EnMin= -150.373338819144     IErMin= 4 ErrMin= 3.91D-04
 ErrMax= 3.91D-04 EMaxC= 1.00D-01 BMatC= 2.00D-05 BMatP= 3.85D-03
 IDIUse=3 WtCom= 9.96D-01 WtEn= 3.91D-03
 Coeff-Com:  0.363D-03 0.354D-01 0.102D+00 0.862D+00
 Coeff-En:   0.000D+00 0.000D+00 0.000D+00 0.100D+01
 Coeff:      0.362D-03 0.353D-01 0.102D+00 0.862D+00
 Gap=     0.389 Goal=   None    Shift=    0.000
 RMSDP=1.57D-05 MaxDP=8.16D-04 DE=-3.22D-03 OVMax= 1.11D-03

 Cycle   5  Pass 1  IDiag  1:
 RMSU=  6.79D-06    CP:  9.85D-01  9.53D-01  7.40D-01  1.09D+00
 FoFJK:  IHMeth= 1 ICntrl=     0 DoSepK=T KAlg= 1 I1Cent= 0 FoldK=F
 E= -150.373352001036     Delta-E=       -0.000013181892 Rises=F Damp=F
 DIIS: error= 2.20D-04 at cycle   5 NSaved=   5.
 NSaved= 5 IEnMin= 5 EnMin= -150.373352001036     IErMin= 5 ErrMin= 2.20D-04
 ErrMax= 2.20D-04 EMaxC= 1.00D-01 BMatC= 4.82D-06 BMatP= 2.00D-05
 IDIUse=3 WtCom= 9.98D-01 WtEn= 2.20D-03
 Coeff-Com: -0.134D-02-0.202D-01-0.974D-02 0.401D+00 0.630D+00
 Coeff-En:   0.000D+00 0.000D+00 0.000D+00 0.000D+00 0.100D+01
 Coeff:     -0.134D-02-0.202D-01-0.971D-02 0.400D+00 0.631D+00
 Gap=     0.389 Goal=   None    Shift=    0.000
 RMSDP=5.57D-06 MaxDP=3.02D-04 DE=-1.32D-05 OVMax= 1.05D-03

 Cycle   6  Pass 1  IDiag  1:
 RMSU=  2.10D-06    CP:  9.85D-01  9.53D-01  7.49D-01  1.13D+00  7.62D-01
 FoFJK:  IHMeth= 1 ICntrl=     0 DoSepK=T KAlg= 1 I1Cent= 0 FoldK=F
 E= -150.373356128496     Delta-E=       -0.000004127460 Rises=F Damp=F
 DIIS: error= 3.80D-05 at cycle   6 NSaved=   6.
 NSaved= 6 IEnMin= 6 EnMin= -150.373356128496     IErMin= 6 ErrMin= 3.80D-05
 ErrMax= 3.80D-05 EMaxC= 1.00D-01 BMatC= 1.42D-07 BMatP= 4.82D-06
 IDIUse=1 WtCom= 1.00D+00 WtEn= 0.00D+00
 Coeff-Com: -0.230D-03-0.622D-02-0.103D-01-0.406D-02 0.139D+00 0.882D+00
 Coeff:     -0.230D-03-0.622D-02-0.103D-01-0.406D-02 0.139D+00 0.882D+00
 Gap=     0.389 Goal=   None    Shift=    0.000
 RMSDP=1.29D-06 MaxDP=5.05D-05 DE=-4.13D-06 OVMax= 1.10D-04

 Cycle   7  Pass 1  IDiag  1:
 RMSU=  4.33D-07    CP:  9.85D-01  9.53D-01  7.50D-01  1.14D+00  8.27D-01
                    CP:  1.00D+00
 FoFJK:  IHMeth= 1 ICntrl=     0 DoSepK=T KAlg= 1 I1Cent= 0 FoldK=F
 E= -150.373356267488     Delta-E=       -0.000000138991 Rises=F Damp=F
 DIIS: error= 5.20D-06 at cycle   7 NSaved=   7.
 NSaved= 7 IEnMin= 7 EnMin= -150.373356267488     IErMin= 7 ErrMin= 5.20D-06
 ErrMax= 5.20D-06 EMaxC= 1.00D-01 BMatC= 2.14D-09 BMatP= 1.42D-07
 IDIUse=1 WtCom= 1.00D+00 WtEn= 0.00D+00
 Coeff-Com:  0.338D-04 0.235D-03-0.798D-03-0.153D-01-0.510D-02 0.664D-01
 Coeff-Com:  0.955D+00
 Coeff:      0.338D-04 0.235D-03-0.798D-03-0.153D-01-0.510D-02 0.664D-01
 Coeff:      0.955D+00
 Gap=     0.389 Goal=   None    Shift=    0.000
 RMSDP=1.80D-07 MaxDP=6.13D-06 DE=-1.39D-07 OVMax= 3.11D-05

 Cycle   8  Pass 1  IDiag  1:
 RMSU=  9.77D-08    CP:  9.85D-01  9.53D-01  7.50D-01  1.14D+00  8.33D-01
                    CP:  1.02D+00  1.08D+00
 FoFJK:  IHMeth= 1 ICntrl=     0 DoSepK=T KAlg= 1 I1Cent= 0 FoldK=F
 E= -150.373356270736     Delta-E=       -0.000000003248 Rises=F Damp=F
 DIIS: error= 1.47D-06 at cycle   8 NSaved=   8.
 NSaved= 8 IEnMin= 8 EnMin= -150.373356270736     IErMin= 8 ErrMin= 1.47D-06
 ErrMax= 1.47D-06 EMaxC= 1.00D-01 BMatC= 1.43D-10 BMatP= 2.14D-09
 IDIUse=1 WtCom= 1.00D+00 WtEn= 0.00D+00
 Coeff-Com:  0.128D-04 0.304D-03 0.353D-03-0.189D-02-0.497D-02-0.355D-01
 Coeff-Com:  0.120D+00 0.922D+00
 Coeff:      0.128D-04 0.304D-03 0.353D-03-0.189D-02-0.497D-02-0.355D-01
 Coeff:      0.120D+00 0.922D+00
 Gap=     0.389 Goal=   None    Shift=    0.000
 RMSDP=4.85D-08 MaxDP=2.92D-06 DE=-3.25D-09 OVMax= 4.48D-06

 Cycle   9  Pass 1  IDiag  1:
 RMSU=  2.09D-08    CP:  9.85D-01  9.53D-01  7.50D-01  1.14D+00  8.34D-01
                    CP:  1.02D+00  1.13D+00  1.08D+00
 FoFJK:  IHMeth= 1 ICntrl=     0 DoSepK=T KAlg= 1 I1Cent= 0 FoldK=F
 E= -150.373356270908     Delta-E=       -0.000000000172 Rises=F Damp=F
 DIIS: error= 1.69D-07 at cycle   9 NSaved=   9.
 NSaved= 9 IEnMin= 9 EnMin= -150.373356270908     IErMin= 9 ErrMin= 1.69D-07
 ErrMax= 1.69D-07 EMaxC= 1.00D-01 BMatC= 4.60D-12 BMatP= 1.43D-10
 IDIUse=1 WtCom= 1.00D+00 WtEn= 0.00D+00
 Coeff-Com: -0.169D-05-0.127D-04 0.368D-04 0.615D-03 0.625D-03-0.502D-02
 Coeff-Com: -0.351D-01 0.359D-01 0.100D+01
 Coeff:     -0.169D-05-0.127D-04 0.368D-04 0.615D-03 0.625D-03-0.502D-02
 Coeff:     -0.351D-01 0.359D-01 0.100D+01
 Gap=     0.389 Goal=   None    Shift=    0.000
 RMSDP=9.29D-09 MaxDP=4.95D-07 DE=-1.72D-10 OVMax= 1.29D-06

 SCF Done:  E(RCAM-B3LYP) =  -150.373356271     A.U. after    9 cycles
             Convg  =    0.9292D-08             -V/T =  2.0064
 KE= 1.494096659722D+02 PE=-5.027106979769D+02 EE= 1.235035692655D+02
 Leave Link  502 at Thu Feb 26 00:19:23 2015, MaxMem= 1073741824 cpu:     271.1
 (Enter /apps/gaussian/g09_c01/g09/l801.exe)
 Range of M.O.s used for correlation:     1   253
 NBasis=   253 NAE=    12 NBE=    12 NFC=     0 NFV=     0
 NROrb=    253 NOA=    12 NOB=    12 NVA=   241 NVB=   241

 **** Warning!!: The largest alpha MO coefficient is  0.47580794D+02

 Leave Link  801 at Thu Feb 26 00:19:23 2015, MaxMem= 1073741824 cpu:       0.1
 (Enter /apps/gaussian/g09_c01/g09/l1002.exe)
 Minotr:  Closed shell wavefunction.
          Direct CPHF calculation.
          Differentiating once with respect to electric field.
                with respect to dipole field.
          Electric field/nuclear overlap derivatives assumed to be zero.
          Using symmetry in CPHF.
          Requested convergence is 1.0D-08 RMS, and 1.0D-07 maximum.
          Secondary convergence is 1.0D-12 RMS, and 1.0D-12 maximum.
          NewPWx=F KeepS1=T KeepF1=T KeepIn=T MapXYZ=F SortEE=F KeepMc=T.
          MDV=    1073741756 using IRadAn=       1.
 Generate precomputed XC quadrature information.
          Solving linear equations simultaneously, MaxMat=       0.
          There are     3 degrees of freedom in the 1st order CPHF.  IDoFFX=0.
      3 vectors produced by pass  0 Test12= 9.64D-14 3.33D-08 XBig12= 1.91D+01 3.48D+00.
 AX will form     3 AO Fock derivatives at one time.
 FoFJK:  IHMeth= 1 ICntrl=     0 DoSepK=T KAlg= 1 I1Cent= 0 FoldK=F
 FoFCou: FMM=F IPFlag=           0 FMFlag=      100000 FMFlg1=           0
         NFxFlg=           0 DoJE=T BraDBF=F KetDBF=F FulRan=T
         Omega=  0.000000  0.000000  1.000000  0.000000  0.000000 ICntrl=     500 IOpCl=  0
         NMat0=    3 NMatS0=    3 NMatT0=    0 NMatD0=    3 NMtDS0=    0 NMtDT0=    0
         I1Cent=           0 NGrid=           0.
 Symmetry not used in FoFCou.
      3 vectors produced by pass  1 Test12= 9.64D-14 3.33D-08 XBig12= 3.34D+00 5.03D-01.
 FoFJK:  IHMeth= 1 ICntrl=     0 DoSepK=T KAlg= 1 I1Cent= 0 FoldK=F
      3 vectors produced by pass  2 Test12= 9.64D-14 3.33D-08 XBig12= 5.58D-01 3.04D-01.
 FoFJK:  IHMeth= 1 ICntrl=     0 DoSepK=T KAlg= 1 I1Cent= 0 FoldK=F
      3 vectors produced by pass  3 Test12= 9.64D-14 3.33D-08 XBig12= 2.11D-02 4.32D-02.
 FoFJK:  IHMeth= 1 ICntrl=     0 DoSepK=T KAlg= 1 I1Cent= 0 FoldK=F
      3 vectors produced by pass  4 Test12= 9.64D-14 3.33D-08 XBig12= 7.09D-04 4.71D-03.
 FoFJK:  IHMeth= 1 ICntrl=     0 DoSepK=T KAlg= 1 I1Cent= 0 FoldK=F
      3 vectors produced by pass  5 Test12= 9.64D-14 3.33D-08 XBig12= 1.26D-04 4.77D-03.
 FoFJK:  IHMeth= 1 ICntrl=     0 DoSepK=T KAlg= 1 I1Cent= 0 FoldK=F
      3 vectors produced by pass  6 Test12= 9.64D-14 3.33D-08 XBig12= 3.93D-06 5.54D-04.
 FoFJK:  IHMeth= 1 ICntrl=     0 DoSepK=T KAlg= 1 I1Cent= 0 FoldK=F
      3 vectors produced by pass  7 Test12= 9.64D-14 3.33D-08 XBig12= 9.87D-08 7.10D-05.
 FoFJK:  IHMeth= 1 ICntrl=     0 DoSepK=T KAlg= 1 I1Cent= 0 FoldK=F
      3 vectors produced by pass  8 Test12= 9.64D-14 3.33D-08 XBig12= 1.18D-09 9.37D-06.
 FoFJK:  IHMeth= 1 ICntrl=     0 DoSepK=T KAlg= 1 I1Cent= 0 FoldK=F
      2 vectors produced by pass  9 Test12= 9.64D-14 3.33D-08 XBig12= 1.24D-11 6.88D-07.
 FoFJK:  IHMeth= 1 ICntrl=     0 DoSepK=T KAlg= 1 I1Cent= 0 FoldK=F
      1 vectors produced by pass 10 Test12= 9.64D-14 3.33D-08 XBig12= 1.60D-13 6.38D-08.
 FoFJK:  IHMeth= 1 ICntrl=     0 DoSepK=T KAlg= 1 I1Cent= 0 FoldK=F
 Inverted reduced A of dimension    30 with in-core refinement.
 End of Minotr Frequency-dependent properties file   721 does not exist.
 End of Minotr Frequency-dependent properties file   722 does not exist.
 Leave Link 1002 at Thu Feb 26 00:21:05 2015, MaxMem= 1073741824 cpu:     812.6
 (Enter /apps/gaussian/g09_c01/g09/l1101.exe)
 Using compressed storage, NAtomX=     8.
 Will process   9 centers per pass.
 Leave Link 1101 at Thu Feb 26 00:21:05 2015, MaxMem= 1073741824 cpu:       2.2
 (Enter /apps/gaussian/g09_c01/g09/l1102.exe)
 Symmetrizing basis deriv contribution to polar:
 IMax=3 JMax=2 DiffMx= 0.00D+00
 Leave Link 1102 at Thu Feb 26 00:21:05 2015, MaxMem= 1073741824 cpu:       0.5
 (Enter /apps/gaussian/g09_c01/g09/l1110.exe)
 Forming Gx(P) for the SCF density, NAtomX=     8.
 Integral derivatives from FoFDir/FoFCou, PRISM(SPDF).
 Do as many integral derivatives as possible in FoFDir.
 G2DrvN: MDV=    1073741656.
 G2DrvN: will do     9 centers at a time, making    1 passes doing MaxLOS=3.
 Calling FoFCou, ICntrl=  3107 FMM=F I1Cent=   0 AccDes= 0.00D+00.
 FoFJK:  IHMeth= 1 ICntrl=  3107 DoSepK=T KAlg= 1 I1Cent= 0 FoldK=F
 FoFCou: FMM=F IPFlag=           0 FMFlag=      100000 FMFlg1=           0
         NFxFlg=           0 DoJE=F BraDBF=F KetDBF=F FulRan=T
         Omega=  0.000000  0.000000  1.000000  0.000000  0.000000 ICntrl=    3507 IOpCl=  0
         NMat0=    1 NMatS0=    1 NMatT0=    0 NMatD0=    4 NMtDS0=    3 NMtDT0=    0
         I1Cent=           0 NGrid=           0.
 Petite list used in FoFCou.
 FoFDir/FoFCou used for L=0 through L=3.
 End of G2Drv Frequency-dependent properties file   721 does not exist.
 End of G2Drv Frequency-dependent properties file   722 does not exist.
 Leave Link 1110 at Thu Feb 26 00:21:59 2015, MaxMem= 1073741824 cpu:     426.5
 (Enter /apps/gaussian/g09_c01/g09/l1002.exe)
 Minotr:  Closed shell wavefunction.
          IDoAtm=11111111
          Direct CPHF calculation.
          Differentiating once with respect to electric field.
                with respect to dipole field.
          Differentiating once with respect to nuclear coordinates.
          Using symmetry in CPHF.
          Requested convergence is 1.0D-08 RMS, and 1.0D-07 maximum.
          Secondary convergence is 1.0D-12 RMS, and 1.0D-12 maximum.
          NewPWx=T KeepS1=F KeepF1=F KeepIn=T MapXYZ=F SortEE=F KeepMc=T.
          MDV=    1073741740 using IRadAn=       1.
 Generate precomputed XC quadrature information.
          Solving linear equations simultaneously, MaxMat=       0.
 FoFJK:  IHMeth= 1 ICntrl=     0 DoSepK=T KAlg= 1 I1Cent= 0 FoldK=F
 FoFCou: FMM=F IPFlag=           0 FMFlag=      100000 FMFlg1=           0
         NFxFlg=           0 DoJE=F BraDBF=F KetDBF=F FulRan=T
         Omega=  0.000000  0.000000  1.000000  0.000000  0.000000 ICntrl=     500 IOpCl=  0
         NMat0=   18 NMatS0=   18 NMatT0=    0 NMatD0=   18 NMtDS0=    0 NMtDT0=    0
         I1Cent=           0 NGrid=           0.
 Integrals replicated using symmetry in FoFCou.
          There are    18 degrees of freedom in the 1st order CPHF.  IDoFFX=4.
 Will reuse    3 saved solutions.
     15 vectors produced by pass  0 Test12= 1.61D-14 5.56D-09 XBig12= 1.10D-01 9.56D-02.
 AX will form    15 AO Fock derivatives at one time.
 FoFJK:  IHMeth= 1 ICntrl=     0 DoSepK=T KAlg= 1 I1Cent= 0 FoldK=F
     15 vectors produced by pass  1 Test12= 1.61D-14 5.56D-09 XBig12= 3.43D-02 1.16D-01.
 FoFJK:  IHMeth= 1 ICntrl=     0 DoSepK=T KAlg= 1 I1Cent= 0 FoldK=F
     15 vectors produced by pass  2 Test12= 1.61D-14 5.56D-09 XBig12= 8.61D-04 6.43D-03.
 FoFJK:  IHMeth= 1 ICntrl=     0 DoSepK=T KAlg= 1 I1Cent= 0 FoldK=F
     15 vectors produced by pass  3 Test12= 1.61D-14 5.56D-09 XBig12= 6.70D-06 6.77D-04.
 FoFJK:  IHMeth= 1 ICntrl=     0 DoSepK=T KAlg= 1 I1Cent= 0 FoldK=F
     15 vectors produced by pass  4 Test12= 1.61D-14 5.56D-09 XBig12= 5.10D-08 5.60D-05.
 FoFJK:  IHMeth= 1 ICntrl=     0 DoSepK=T KAlg= 1 I1Cent= 0 FoldK=F
     15 vectors produced by pass  5 Test12= 1.61D-14 5.56D-09 XBig12= 4.00D-10 4.72D-06.
 FoFJK:  IHMeth= 1 ICntrl=     0 DoSepK=T KAlg= 1 I1Cent= 0 FoldK=F
     12 vectors produced by pass  6 Test12= 1.61D-14 5.56D-09 XBig12= 2.37D-12 3.40D-07.
 FoFJK:  IHMeth= 1 ICntrl=     0 DoSepK=T KAlg= 1 I1Cent= 0 FoldK=F
      2 vectors produced by pass  7 Test12= 1.61D-14 5.56D-09 XBig12= 1.18D-14 1.85D-08.
 FoFJK:  IHMeth= 1 ICntrl=     0 DoSepK=T KAlg= 1 I1Cent= 0 FoldK=F
 Inverted reduced A of dimension   104 with in-core refinement.
 FullF1:  Do perturbations    1 to    18.
 FoFJK:  IHMeth= 1 ICntrl=     0 DoSepK=T KAlg= 1 I1Cent= 0 FoldK=F
 Isotropic polarizability for W=    0.000000       26.97 Bohr**3.
 FoFJK:  IHMeth= 1 ICntrl=     0 DoSepK=T KAlg= 1 I1Cent= 0 FoldK=F
 FullF1:  Do perturbations    1 to     6.
 FoFJK:  IHMeth= 1 ICntrl=     0 DoSepK=T KAlg= 1 I1Cent= 0 FoldK=F
 End of Minotr Frequency-dependent properties file   721 does not exist.
 End of Minotr Frequency-dependent properties file   722 does not exist.
 Leave Link 1002 at Thu Feb 26 00:25:04 2015, MaxMem= 1073741824 cpu:    1473.7
 (Enter /apps/gaussian/g09_c01/g09/l601.exe)
 Copying SCF densities to generalized density rwf, IOpCl= 0 IROHF=0.

 **********************************************************************

            Population analysis using the SCF density.

 **********************************************************************

 Orbital symmetries:
       Occupied  (B2) (A1) (A1) (A1) (B2) (A1) (A1) (B2) (B2) (A1)
                 (B1) (A2)
       Virtual   (B1) (A1) (A1) (B2) (B1) (A1) (B2) (A1) (A1) (B2)
                 (A2) (A1) (B1) (B2) (A1) (B2) (A1) (B2) (B1) (A1)
                 (A2) (A1) (B2) (B2) (B1) (A1) (A1) (B1) (A1) (B2)
                 (A2) (A1) (B2) (A1) (B1) (A1) (A2) (B2) (B2) (A1)
                 (A1) (B2) (B2) (B1) (A1) (B2) (A2) (B1) (A1) (B2)
                 (B1) (A1) (A2) (B2) (A1) (B2) (A1) (A1) (A1) (B1)
                 (B2) (A2) (A1) (B2) (B1) (A1) (A2) (B2) (A1) (B1)
                 (A2) (B2) (B1) (A1) (B2) (A1) (B1) (B2) (A1) (A2)
                 (A1) (B1) (B2) (A2) (A1) (B1) (B2) (A1) (A2) (A1)
                 (B2) (B2) (A2) (B2) (A1) (B1) (A2) (B2) (A1) (A1)
                 (B1) (B1) (B2) (B2) (A1) (A2) (A1) (B2) (B1) (B2)
                 (A1) (A1) (A2) (A1) (B1) (B2) (B2) (B1) (A1) (A2)
                 (B1) (B2) (A1) (A1) (A2) (A1) (B2) (B2) (A1) (A1)
                 (A2) (B1) (B2) (B1) (A1) (B2) (B2) (A2) (B1) (B2)
                 (B2) (A1) (A2) (A1) (A1) (B2) (B1) (B2) (A1) (A1)
                 (B2) (B1) (A1) (A2) (B2) (B1) (B1) (A1) (A2) (A1)
                 (B2) (A1) (A1) (B2) (A2) (B1) (B2) (A1) (A2) (A1)
                 (B2) (A1) (A2) (B1) (B1) (A2) (A1) (B1) (A2) (B2)
                 (B2) (B1) (A1) (A2) (A1) (B2) (A1) (B1) (B2) (B2)
                 (A1) (B1) (A1) (A2) (B1) (A1) (B2) (B2) (A2) (A1)
                 (B2) (A1) (B1) (B2) (B2) (A1) (A2) (B2) (B2) (B1)
                 (A1) (B1) (A1) (A2) (B1) (A1) (B2) (A1) (A2) (B2)
                 (A2) (B1) (B2) (A2) (A1) (B1) (B2) (A1) (B2) (A1)
                 (B2) (A1) (A1) (A1) (B2) (B2) (A1) (B2) (A1) (B2)
                 (A1)
 The electronic state is 1-A1.
 Alpha  occ. eigenvalues --  -14.66334 -14.66332 -10.59635  -1.30305  -1.21497
 Alpha  occ. eigenvalues --   -0.97225  -0.89112  -0.86392  -0.79412  -0.73388
 Alpha  occ. eigenvalues --   -0.71389  -0.57904
 Alpha virt. eigenvalues --   -0.18959  -0.15048  -0.12614  -0.12280  -0.08381
 Alpha virt. eigenvalues --   -0.07812  -0.07660  -0.05833  -0.04519  -0.04326
 Alpha virt. eigenvalues --   -0.03235  -0.02845  -0.02163  -0.00863  -0.00812
 Alpha virt. eigenvalues --    0.00453   0.00865   0.03166   0.03825   0.04848
 Alpha virt. eigenvalues --    0.07230   0.07292   0.08473   0.09236   0.09834
 Alpha virt. eigenvalues --    0.10413   0.14036   0.15302   0.15385   0.16207
 Alpha virt. eigenvalues --    0.16298   0.16744   0.16904   0.17518   0.19679
 Alpha virt. eigenvalues --    0.21238   0.21256   0.22028   0.24206   0.24345
 Alpha virt. eigenvalues --    0.24837   0.26019   0.26483   0.28538   0.29844
 Alpha virt. eigenvalues --    0.36092   0.36551   0.37373   0.38059   0.38371
 Alpha virt. eigenvalues --    0.40217   0.42427   0.42800   0.43378   0.45228
 Alpha virt. eigenvalues --    0.46287   0.47722   0.54849   0.57594   0.58379
 Alpha virt. eigenvalues --    0.60093   0.60675   0.60747   0.62356   0.64055
 Alpha virt. eigenvalues --    0.64144   0.65585   0.65632   0.68642   0.69602
 Alpha virt. eigenvalues --    0.72327   0.72937   0.73410   0.74503   0.75153
 Alpha virt. eigenvalues --    0.76079   0.77275   0.77395   0.80666   0.82133
 Alpha virt. eigenvalues --    0.84412   0.85656   0.86741   0.87788   0.90607
 Alpha virt. eigenvalues --    0.91615   0.94064   0.94163   0.95414   0.96204
 Alpha virt. eigenvalues --    0.97866   0.99390   1.01390   1.02093   1.05240
 Alpha virt. eigenvalues --    1.05507   1.07488   1.07913   1.07997   1.10340
 Alpha virt. eigenvalues --    1.16091   1.16472   1.16786   1.20903   1.21651
 Alpha virt. eigenvalues --    1.23574   1.24358   1.30581   1.31507   1.34082
 Alpha virt. eigenvalues --    1.36550   1.38101   1.41011   1.50347   1.52476
 Alpha virt. eigenvalues --    1.55604   1.62055   1.64044   1.64732   1.64843
 Alpha virt. eigenvalues --    1.67436   1.67646   1.68284   1.71733   1.76687
 Alpha virt. eigenvalues --    1.77236   1.80605   1.84838   1.90391   1.94875
 Alpha virt. eigenvalues --    1.96454   1.99472   2.02427   2.03224   2.06992
 Alpha virt. eigenvalues --    2.08795   2.09613   2.16896   2.17736   2.18712
 Alpha virt. eigenvalues --    2.20280   2.20666   2.28220   2.31212   2.33675
 Alpha virt. eigenvalues --    2.40223   2.57220   2.59487   2.67906   2.79177
 Alpha virt. eigenvalues --    2.91750   2.91999   3.05802   3.11313   3.13272
 Alpha virt. eigenvalues --    3.17157   3.24271   3.25192   3.27857   3.32957
 Alpha virt. eigenvalues --    3.35949   3.41455   3.49929   3.54069   3.55577
 Alpha virt. eigenvalues --    3.57157   3.57419   3.57459   3.59117   3.67411
 Alpha virt. eigenvalues --    3.72152   3.74813   3.79937   3.80252   3.84071
 Alpha virt. eigenvalues --    3.87889   3.89243   3.92265   3.96431   3.99442
 Alpha virt. eigenvalues --    4.03263   4.04996   4.08580   4.10880   4.12668
 Alpha virt. eigenvalues --    4.15386   4.18711   4.23962   4.24728   4.25999
 Alpha virt. eigenvalues --    4.28123   4.36461   4.37661   4.39728   4.43161
 Alpha virt. eigenvalues --    4.44951   4.47561   4.50368   4.52824   4.62874
 Alpha virt. eigenvalues --    4.69447   4.74399   4.74657   4.75937   4.81717
 Alpha virt. eigenvalues --    4.84137   4.87614   4.92028   4.99394   5.00964
 Alpha virt. eigenvalues --    5.03292   5.07669   5.12359   5.13438   5.17261
 Alpha virt. eigenvalues --    5.18870   5.29961   5.30589   5.40662   5.45267
 Alpha virt. eigenvalues --    5.45314   5.52945   5.58867   5.63008   5.65187
 Alpha virt. eigenvalues --    5.72541   5.78627   5.87404   5.88121   6.08928
 Alpha virt. eigenvalues --    6.23700   6.28146   6.50391   6.84928   6.86778
 Alpha virt. eigenvalues --    6.99221   7.10043   7.34457  16.16102  16.65277
 Alpha virt. eigenvalues --   17.40782
          Condensed to atoms (all electrons):
              1          2          3          4          5          6
     1  C    5.117643   0.207248   0.379208  -0.058260  -0.040343   0.379208
     2  H    0.207248   0.244008  -0.029143  -0.009201   0.004835  -0.029143
     3  N    0.379208  -0.029143   6.070151   0.434437   0.416069  -0.131635
     4  H   -0.058260  -0.009201   0.434437   0.598535  -0.083374   0.002163
     5  H   -0.040343   0.004835   0.416069  -0.083374   0.550484  -0.004086
     6  N    0.379208  -0.029143  -0.131635   0.002163  -0.004086   6.070151
     7  H   -0.040343   0.004835  -0.004086  -0.001927   0.002029   0.416069
     8  H   -0.058260  -0.009201   0.002163   0.001608  -0.001927   0.434437
              7          8
     1  C   -0.040343  -0.058260
     2  H    0.004835  -0.009201
     3  N   -0.004086   0.002163
     4  H   -0.001927   0.001608
     5  H    0.002029  -0.001927
     6  N    0.416069   0.434437
     7  H    0.550484  -0.083374
     8  H   -0.083374   0.598535
 Mulliken atomic charges:
              1
     1  C    0.113900
     2  H    0.615763
     3  N   -0.137163
     4  H    0.116019
     5  H    0.156313
     6  N   -0.137163
     7  H    0.156313
     8  H    0.116019
 Sum of Mulliken atomic charges =   1.00000
 Mulliken charges with hydrogens summed into heavy atoms:
              1
     1  C    0.729663
     3  N    0.135169
     6  N    0.135169
 Sum of Mulliken charges with hydrogens summed into heavy atoms =   1.00000
 APT atomic charges:
              1
     1  C    0.912279
     2  H    0.132546
     3  N   -0.617672
     4  H    0.315249
     5  H    0.280010
     6  N   -0.617672
     7  H    0.280010
     8  H    0.315249
 Sum of APT charges=   1.00000
 APT Atomic charges with hydrogens summed into heavy atoms:
              1
     1  C    1.044825
     2  H    0.000000
     3  N   -0.022412
     4  H    0.000000
     5  H    0.000000
     6  N   -0.022412
     7  H    0.000000
     8  H    0.000000
 Sum of APT charges=   1.00000
 Electronic spatial extent (au):  <R**2>=            159.0996
 Charge=              1.0000 electrons
 Dipole moment (field-independent basis, Debye):
    X=              0.0000    Y=              0.0000    Z=             -0.1789  Tot=              0.1789
 Quadrupole moment (field-independent basis, Debye-Ang):
   XX=            -19.2796   YY=             -4.5702   ZZ=            -10.3709
   XY=              0.0000   XZ=              0.0000   YZ=              0.0000
 Traceless Quadrupole moment (field-independent basis, Debye-Ang):
   XX=             -7.8727   YY=              6.8367   ZZ=              1.0360
   XY=              0.0000   XZ=              0.0000   YZ=              0.0000
 Octapole moment (field-independent basis, Debye-Ang**2):
  XXX=              0.0000  YYY=              0.0000  ZZZ=             -3.2034  XYY=              0.0000
  XXY=              0.0000  XXZ=             -0.0324  XZZ=              0.0000  YZZ=              0.0000
  YYZ=             -0.0552  XYZ=              0.0000
 Hexadecapole moment (field-independent basis, Debye-Ang**3):
 XXXX=            -18.0369 YYYY=            -72.5780 ZZZZ=            -23.9313 XXXY=              0.0000
 XXXZ=              0.0000 YYYX=              0.0000 YYYZ=              0.0000 ZZZX=              0.0000
 ZZZY=              0.0000 XXYY=            -27.9598 XXZZ=             -9.7506 YYZZ=            -18.3127
 XXYZ=              0.0000 YYXZ=              0.0000 ZZXY=              0.0000
 N-N= 7.942410646830D+01 E-N=-5.027106869064D+02  KE= 1.494096659722D+02
 Symmetry A1   KE= 8.852885809465D+01
 Symmetry A2   KE= 3.532795465452D+00
 Symmetry B1   KE= 2.769745085478D+00
 Symmetry B2   KE= 5.457826732663D+01
  Exact polarizability:  18.341   0.000  37.543   0.000   0.000  25.019
 Approx polarizability:  21.118   0.000  41.795   0.000   0.000  28.990
 No NMR shielding tensors so no spin-rotation constants.
 Leave Link  601 at Thu Feb 26 00:25:04 2015, MaxMem= 1073741824 cpu:       2.7
 (Enter /apps/gaussian/g09_c01/g09/l701.exe)
 Compute integral second derivatives.
 ... and contract with generalized density number  0.
 Leave Link  701 at Thu Feb 26 00:25:05 2015, MaxMem= 1073741824 cpu:       2.3
 (Enter /apps/gaussian/g09_c01/g09/l702.exe)
 L702 exits ... SP integral derivatives will be done elsewhere.
 Leave Link  702 at Thu Feb 26 00:25:05 2015, MaxMem= 1073741824 cpu:       0.1
 (Enter /apps/gaussian/g09_c01/g09/l703.exe)
 Compute integral second derivatives, UseDBF=F ICtDFT=           0.
 Integral derivatives from FoFDir, PRISM(SPDF).
 Calling FoFJK, ICntrl=    100127 FMM=F ISym2X=1 I1Cent= 0 IOpClX= 0 NMat=1 NMatS=1 NMatT=0.
 FoFJK:  IHMeth= 1 ICntrl=100127 DoSepK=T KAlg= 1 I1Cent= 0 FoldK=F
 FoFCou: FMM=F IPFlag=           0 FMFlag=      100000 FMFlg1=         800
         NFxFlg=           0 DoJE=F BraDBF=F KetDBF=F FulRan=T
         Omega=  0.000000  0.000000  1.000000  0.000000  0.000000 ICntrl=  100527 IOpCl=  0
         NMat0=    1 NMatS0=    1 NMatT0=    0 NMatD0=    1 NMtDS0=    0 NMtDT0=    0
         I1Cent=           0 NGrid=           0.
 Petite list used in FoFCou.
 Leave Link  703 at Thu Feb 26 00:26:48 2015, MaxMem= 1073741824 cpu:     823.2
 (Enter /apps/gaussian/g09_c01/g09/l716.exe)
 Dipole        =-7.82324952D-17-3.94763432D-15-7.03766857D-02
 Polarizability= 1.83410869D+01-5.62154660D-13 3.75426771D+01
                -1.05573943D-13 2.05953402D-12 2.50189021D+01
 HyperPolar    =-7.34509810D-11-6.90326324D-10-1.36199772D-10
                 1.60655517D-10 1.87554927D-01-3.33220367D-11
                 3.20591595D+01-1.16087607D-10 1.71308029D-10
                -5.58765735D+00
 ***** Axes restored to original set *****
 -------------------------------------------------------------------
 Center     Atomic                   Forces (Hartrees/Bohr)
 Number     Number              X              Y              Z
 -------------------------------------------------------------------
      1        6           0.000000000   -0.007831923    0.000000000
      2        1           0.000000000   -0.002685480    0.000000000
      3        7          -0.006850411    0.002327147    0.000000000
      4        1          -0.004528281   -0.001778415    0.000000000
      5        1          -0.001492563    0.004709970    0.000000000
      6        7           0.006850411    0.002327147    0.000000000
      7        1           0.001492563    0.004709970    0.000000000
      8        1           0.004528281   -0.001778415    0.000000000
 -------------------------------------------------------------------
 Cartesian Forces:  Max     0.007831923 RMS     0.003350358
 Force constants in Cartesian coordinates: 
                1             2             3             4             5 
      1  0.894086D+00
      2  0.000000D+00  0.828290D+00
      3  0.000000D+00  0.000000D+00  0.180981D+00
      4 -0.653673D-01  0.000000D+00  0.000000D+00  0.710389D-01
      5  0.000000D+00 -0.341230D+00  0.000000D+00  0.000000D+00  0.355826D+00
      6  0.000000D+00  0.000000D+00 -0.568958D-01  0.000000D+00  0.000000D+00
      7 -0.390018D+00  0.147801D+00  0.000000D+00 -0.271560D-04  0.170669D-02
      8  0.128740D+00 -0.251208D+00  0.000000D+00  0.353096D-01 -0.946044D-02
      9  0.000000D+00  0.000000D+00 -0.576344D-01  0.000000D+00  0.000000D+00
     10 -0.273082D-01 -0.168033D-01  0.000000D+00  0.114480D-02  0.274241D-03
     11  0.161251D-01  0.163921D-01  0.000000D+00  0.931785D-03  0.784711D-03
     12  0.000000D+00  0.000000D+00 -0.567660D-02  0.000000D+00  0.000000D+00
     13  0.296674D-02  0.364344D-01  0.000000D+00 -0.395342D-02  0.949668D-03
     14  0.867315D-02 -0.871420D-02  0.000000D+00  0.848370D-03  0.137783D-02
     15  0.000000D+00  0.000000D+00  0.126854D-02  0.000000D+00  0.000000D+00
     16 -0.390018D+00 -0.147801D+00  0.000000D+00 -0.271562D-04 -0.170669D-02
     17 -0.128740D+00 -0.251208D+00  0.000000D+00 -0.353096D-01 -0.946044D-02
     18  0.000000D+00  0.000000D+00 -0.576344D-01  0.000000D+00  0.000000D+00
     19  0.296674D-02 -0.364344D-01  0.000000D+00 -0.395342D-02 -0.949667D-03
     20 -0.867315D-02 -0.871420D-02  0.000000D+00 -0.848371D-03  0.137783D-02
     21  0.000000D+00  0.000000D+00  0.126854D-02  0.000000D+00  0.000000D+00
     22 -0.273082D-01  0.168033D-01  0.000000D+00  0.114480D-02 -0.274242D-03
     23 -0.161251D-01  0.163921D-01  0.000000D+00 -0.931785D-03  0.784711D-03
     24  0.000000D+00  0.000000D+00 -0.567660D-02  0.000000D+00  0.000000D+00
                6             7             8             9            10 
      6  0.331204D-01
      7  0.000000D+00  0.878059D+00
      8  0.000000D+00 -0.120076D-01  0.843203D+00
      9  0.825452D-02  0.000000D+00  0.000000D+00  0.660267D-01
     10  0.000000D+00 -0.326031D+00 -0.168053D+00  0.000000D+00  0.340136D+00
     11  0.000000D+00 -0.172079D+00 -0.190174D+00  0.000000D+00  0.175475D+00
     12 -0.414552D-02  0.000000D+00  0.000000D+00 -0.130068D-01  0.000000D+00
     13  0.000000D+00 -0.810197D-01  0.288351D-01  0.000000D+00  0.106747D-01
     14  0.000000D+00  0.272315D-01 -0.427697D+00  0.000000D+00  0.455763D-02
     15  0.777873D-02  0.000000D+00  0.000000D+00 -0.191592D-01  0.000000D+00
     16  0.000000D+00 -0.850712D-01 -0.868662D-02  0.000000D+00  0.219794D-02
     17  0.000000D+00  0.868662D-02  0.366697D-01  0.000000D+00  0.522395D-02
     18  0.825452D-02  0.000000D+00  0.000000D+00  0.135397D-01  0.000000D+00
     19  0.000000D+00  0.191043D-02  0.108624D-02  0.000000D+00 -0.120113D-03
     20  0.000000D+00  0.534456D-02  0.243360D-03  0.000000D+00 -0.257195D-03
     21  0.777873D-02  0.000000D+00  0.000000D+00 -0.398562D-02  0.000000D+00
     22  0.000000D+00  0.219794D-02 -0.522395D-02  0.000000D+00 -0.694175D-03
     23  0.000000D+00 -0.668449D-02 -0.157676D-02  0.000000D+00 -0.416965D-03
     24 -0.414552D-02  0.000000D+00  0.000000D+00  0.596511D-02  0.000000D+00
               11            12            13            14            15 
     11  0.183264D+00
     12  0.000000D+00  0.152735D-01
     13 -0.277731D-01  0.000000D+00  0.711219D-01
     14 -0.904061D-02  0.000000D+00 -0.366823D-01  0.443554D+00
     15  0.000000D+00 -0.815889D-03  0.000000D+00  0.000000D+00  0.152069D-01
     16  0.668449D-02  0.000000D+00  0.191043D-02 -0.534456D-02  0.000000D+00
     17 -0.157676D-02  0.000000D+00 -0.108624D-02  0.243360D-03  0.000000D+00
     18  0.000000D+00  0.596511D-02  0.000000D+00  0.000000D+00 -0.398562D-02
     19  0.218524D-03  0.000000D+00 -0.158059D-02  0.459037D-03  0.000000D+00
     20 -0.527783D-03  0.000000D+00 -0.459037D-03  0.804404D-03  0.000000D+00
     21  0.000000D+00 -0.561713D-03  0.000000D+00  0.000000D+00  0.268280D-03
     22  0.416965D-03  0.000000D+00 -0.120113D-03  0.257195D-03  0.000000D+00
     23  0.878901D-03  0.000000D+00 -0.218524D-03 -0.527783D-03  0.000000D+00
     24  0.000000D+00  0.296792D-02  0.000000D+00  0.000000D+00 -0.561713D-03
               16            17            18            19            20 
     16  0.878059D+00
     17  0.120076D-01  0.843203D+00
     18  0.000000D+00  0.000000D+00  0.660267D-01
     19 -0.810197D-01 -0.288351D-01  0.000000D+00  0.711219D-01
     20 -0.272315D-01 -0.427697D+00  0.000000D+00  0.366823D-01  0.443554D+00
     21  0.000000D+00  0.000000D+00 -0.191592D-01  0.000000D+00  0.000000D+00
     22 -0.326031D+00  0.168053D+00  0.000000D+00  0.106747D-01 -0.455763D-02
     23  0.172079D+00 -0.190174D+00  0.000000D+00  0.277731D-01 -0.904061D-02
     24  0.000000D+00  0.000000D+00 -0.130068D-01  0.000000D+00  0.000000D+00
               21            22            23            24 
     21  0.152069D-01
     22  0.000000D+00  0.340136D+00
     23  0.000000D+00 -0.175475D+00  0.183264D+00
     24 -0.815889D-03  0.000000D+00  0.000000D+00  0.152735D-01
 Force constants in internal coordinates: 
                1             2             3             4             5 
      1  0.355826D+00
      2  0.594898D-02  0.584723D+00
      3  0.594898D-02  0.617210D-01  0.584723D+00
      4  0.653983D-03  0.618794D-02 -0.599608D-02  0.453894D+00
      5 -0.127204D-02  0.919486D-02 -0.379006D-02  0.409356D-03  0.447116D+00
      6 -0.127204D-02 -0.379006D-02  0.919487D-02  0.496814D-03  0.907708D-03
      7  0.653983D-03 -0.599608D-02  0.618794D-02  0.368912D-03  0.496814D-03
      8  0.323495D-02  0.816883D-02 -0.319056D-01 -0.229891D-02  0.347032D-02
      9  0.323495D-02 -0.319056D-01  0.816884D-02  0.711716D-03  0.896223D-03
     10 -0.646990D-02  0.237368D-01  0.237368D-01  0.158719D-02 -0.436654D-02
     11 -0.135109D-02  0.164980D-01  0.346024D-02  0.159729D-02 -0.768345D-02
     12  0.171912D-02  0.724913D-02 -0.751020D-03 -0.660975D-02  0.195952D-02
     13 -0.368036D-03 -0.237471D-01 -0.270922D-02  0.501246D-02  0.572393D-02
     14  0.171912D-02 -0.751018D-03  0.724913D-02 -0.146252D-03  0.854689D-03
     15 -0.135109D-02  0.346024D-02  0.164980D-01  0.160429D-03 -0.693767D-03
     16 -0.368035D-03 -0.270923D-02 -0.237471D-01 -0.141766D-04 -0.160921D-03
     17  0.000000D+00  0.000000D+00  0.000000D+00  0.000000D+00  0.000000D+00
     18  0.000000D+00  0.000000D+00  0.000000D+00  0.000000D+00  0.000000D+00
     19  0.000000D+00  0.000000D+00  0.000000D+00  0.000000D+00  0.000000D+00
     20  0.000000D+00  0.000000D+00  0.000000D+00  0.000000D+00  0.000000D+00
     21  0.000000D+00  0.000000D+00  0.000000D+00  0.000000D+00  0.000000D+00
     22  0.000000D+00  0.000000D+00  0.000000D+00  0.000000D+00  0.000000D+00
     23  0.000000D+00  0.000000D+00  0.000000D+00  0.000000D+00  0.000000D+00
     24  0.000000D+00  0.000000D+00  0.000000D+00  0.000000D+00  0.000000D+00
                6             7             8             9            10 
      6  0.447116D+00
      7  0.409357D-03  0.453894D+00
      8  0.896225D-03  0.711717D-03  0.110998D+00
      9  0.347032D-02 -0.229891D-02 -0.360058D-01  0.110998D+00
     10 -0.436654D-02  0.158719D-02 -0.749922D-01 -0.749922D-01  0.149984D+00
     11 -0.693768D-03  0.160429D-03 -0.846551D-02 -0.385432D-02  0.123198D-01
     12  0.854688D-03 -0.146253D-03  0.965034D-02 -0.231913D-03 -0.941843D-02
     13 -0.160920D-03 -0.141757D-04 -0.118483D-02  0.408623D-02 -0.290140D-02
     14  0.195952D-02 -0.660975D-02 -0.231913D-03  0.965034D-02 -0.941843D-02
     15 -0.768345D-02  0.159729D-02 -0.385432D-02 -0.846551D-02  0.123198D-01
     16  0.572393D-02  0.501246D-02  0.408623D-02 -0.118484D-02 -0.290140D-02
     17  0.000000D+00  0.000000D+00  0.000000D+00  0.000000D+00  0.000000D+00
     18  0.000000D+00  0.000000D+00  0.000000D+00  0.000000D+00  0.000000D+00
     19  0.000000D+00  0.000000D+00  0.000000D+00  0.000000D+00  0.000000D+00
     20  0.000000D+00  0.000000D+00  0.000000D+00  0.000000D+00  0.000000D+00
     21  0.000000D+00  0.000000D+00  0.000000D+00  0.000000D+00  0.000000D+00
     22  0.000000D+00  0.000000D+00  0.000000D+00  0.000000D+00  0.000000D+00
     23  0.000000D+00  0.000000D+00  0.000000D+00  0.000000D+00  0.000000D+00
     24  0.000000D+00  0.000000D+00  0.000000D+00  0.000000D+00  0.000000D+00
               11            12            13            14            15 
     11  0.868628D-01
     12 -0.465569D-01  0.847551D-01
     13 -0.403060D-01 -0.381982D-01  0.785041D-01
     14 -0.162108D-02  0.245393D-02 -0.832847D-03  0.847551D-01
     15  0.211241D-02 -0.162108D-02 -0.491328D-03 -0.465569D-01  0.868628D-01
     16 -0.491328D-03 -0.832846D-03  0.132417D-02 -0.381982D-01 -0.403060D-01
     17  0.000000D+00  0.000000D+00  0.000000D+00  0.000000D+00  0.000000D+00
     18  0.000000D+00  0.000000D+00  0.000000D+00  0.000000D+00  0.000000D+00
     19  0.000000D+00  0.000000D+00  0.000000D+00  0.000000D+00  0.000000D+00
     20  0.000000D+00  0.000000D+00  0.000000D+00  0.000000D+00  0.000000D+00
     21  0.000000D+00  0.000000D+00  0.000000D+00  0.000000D+00  0.000000D+00
     22  0.000000D+00  0.000000D+00  0.000000D+00  0.000000D+00  0.000000D+00
     23  0.000000D+00  0.000000D+00  0.000000D+00  0.000000D+00  0.000000D+00
     24  0.000000D+00  0.000000D+00  0.000000D+00  0.000000D+00  0.000000D+00
               16            17            18            19            20 
     16  0.785041D-01
     17  0.000000D+00  0.107230D-01
     18  0.000000D+00  0.468555D-02  0.139324D-01
     19  0.000000D+00  0.389298D-02 -0.592793D-02  0.163819D-01
     20  0.000000D+00 -0.214442D-02  0.331891D-02  0.656101D-02  0.120243D-01
     21  0.000000D+00 -0.426641D-02 -0.595708D-02  0.634706D-02  0.465640D-02
     22  0.000000D+00 -0.403855D-02 -0.426641D-02  0.279142D-02  0.256356D-02
     23  0.000000D+00  0.256356D-02  0.465640D-02 -0.614187D-02 -0.404903D-02
     24  0.000000D+00  0.279142D-02  0.634706D-02 -0.969751D-02 -0.614187D-02
               21            22            23            24 
     21  0.139324D-01
     22  0.468555D-02  0.107230D-01
     23  0.331890D-02 -0.214442D-02  0.120243D-01
     24 -0.592793D-02  0.389298D-02  0.656101D-02  0.163819D-01
 Leave Link  716 at Thu Feb 26 00:26:48 2015, MaxMem= 1073741824 cpu:       0.2
 (Enter /apps/gaussian/g09_c01/g09/l103.exe)

 GradGradGradGradGradGradGradGradGradGradGradGradGradGradGradGradGradGrad
 Berny optimization.
 Red2BG is reusing G-inverse.
 Internal  Forces:  Max     0.013850087 RMS     0.004539086
 Search for a local minimum.
 Step number   1 out of a maximum of   34
 All quantities printed in internal units (Hartrees-Bohrs-Radians)
 RMS Force = .45391D-02 SwitMx=.10000D-02 MixMth= 1
 Mixed Optimization -- RFO/linear search
 Second derivative matrix not updated -- analytic derivatives used.
 ITU=  0
     Eigenvalues ---    0.01312   0.01416   0.01620   0.02073   0.04191
     Eigenvalues ---    0.11248   0.11737   0.12387   0.12871   0.14836
     Eigenvalues ---    0.22698   0.35629   0.44424   0.44858   0.45257
     Eigenvalues ---    0.45463   0.53244   0.65300
 RFO step:  Lambda=-8.35031948D-04 EMin= 1.31205100D-02
 Linear search not attempted -- first point.
 Iteration  1 RMS(Cart)=  0.01558208 RMS(Int)=  0.00002492
 Iteration  2 RMS(Cart)=  0.00003809 RMS(Int)=  0.00000000
 Iteration  3 RMS(Cart)=  0.00000000 RMS(Int)=  0.00000000
 ClnCor:  largest displacement from symmetrization is 2.61D-10 for atom     8.
 Variable       Old X    -DE/DX   Delta X   Delta X   Delta X     New X
                                 (Linear)    (Quad)   (Total)
    R1        2.05337  -0.00269   0.00000  -0.00698  -0.00698   2.04639
    R2        2.48365  -0.01385   0.00000  -0.02058  -0.02058   2.46307
    R3        2.48365  -0.01385   0.00000  -0.02058  -0.02058   2.46307
    R4        1.91586  -0.00477   0.00000  -0.01056  -0.01056   1.90530
    R5        1.91959  -0.00484   0.00000  -0.01069  -0.01069   1.90890
    R6        1.91959  -0.00484   0.00000  -0.01069  -0.01069   1.90890
    R7        1.91586  -0.00477   0.00000  -0.01056  -0.01056   1.90530
    A1        2.04681   0.00105   0.00000   0.00277   0.00277   2.04958
    A2        2.04681   0.00105   0.00000   0.00277   0.00277   2.04958
    A3        2.18957  -0.00210   0.00000  -0.00555  -0.00555   2.18402
    A4        2.09627  -0.00057   0.00000  -0.00132  -0.00132   2.09496
    A5        2.15059  -0.00067   0.00000  -0.00519  -0.00519   2.14541
    A6        2.03632   0.00124   0.00000   0.00651   0.00651   2.04282
    A7        2.15059  -0.00067   0.00000  -0.00519  -0.00519   2.14541
    A8        2.09627  -0.00057   0.00000  -0.00132  -0.00132   2.09496
    A9        2.03632   0.00124   0.00000   0.00651   0.00651   2.04282
    D1        0.00000   0.00000   0.00000   0.00000   0.00000   0.00000
    D2        3.14159   0.00000   0.00000   0.00000   0.00000   3.14159
    D3        3.14159   0.00000   0.00000   0.00000   0.00000   3.14159
    D4        0.00000   0.00000   0.00000   0.00000   0.00000   0.00000
    D5        3.14159   0.00000   0.00000   0.00000   0.00000   3.14159
    D6        0.00000   0.00000   0.00000   0.00000   0.00000   0.00000
    D7        0.00000   0.00000   0.00000   0.00000   0.00000   0.00000
    D8        3.14159   0.00000   0.00000   0.00000   0.00000   3.14159
         Item               Value     Threshold  Converged?
 Maximum Force            0.013850     0.000002     NO 
 RMS     Force            0.004539     0.000001     NO 
 Maximum Displacement     0.037659     0.000006     NO 
 RMS     Displacement     0.015564     0.000004     NO 
 Predicted change in Energy=-4.181579D-04
 GradGradGradGradGradGradGradGradGradGradGradGradGradGradGradGradGradGrad

 Leave Link  103 at Thu Feb 26 00:26:48 2015, MaxMem= 1073741824 cpu:       0.8
 (Enter /apps/gaussian/g09_c01/g09/l202.exe)
                          Input orientation:                          
 ---------------------------------------------------------------------
 Center     Atomic      Atomic             Coordinates (Angstroms)
 Number     Number       Type             X           Y           Z
 ---------------------------------------------------------------------
      1          6           0        0.000000    0.426255    0.000000
      2          1           0        0.000000    1.509157    0.000000
      3          7           0        1.156840   -0.174227    0.000000
      4          1           0        2.006846    0.368024    0.000000
      5          1           0        1.253486   -1.179739    0.000000
      6          7           0       -1.156840   -0.174227    0.000000
      7          1           0       -1.253486   -1.179739    0.000000
      8          1           0       -2.006846    0.368024    0.000000
 ---------------------------------------------------------------------
                    Distance matrix (angstroms):
                    1          2          3          4          5
     1  C    0.000000
     2  H    1.082901   0.000000
     3  N    1.303402   2.042562   0.000000
     4  H    2.007691   2.308596   1.008239   0.000000
     5  H    2.037264   2.966713   1.010146   1.721373   0.000000
     6  N    1.303402   2.042562   2.313680   3.209820   2.611652
     7  H    2.037264   2.966713   2.611652   3.609063   2.506971
     8  H    2.007691   2.308596   3.209820   4.013692   3.609063
                    6          7          8
     6  N    0.000000
     7  H    1.010146   0.000000
     8  H    1.008239   1.721373   0.000000
 Stoichiometry    CH5N2(1+)
 Framework group  C2V[C2(CH),SGV(H4N2)]
 Deg. of freedom     7
 Full point group                 C2V     NOp   4
 RotChk:  IX=0 Diff= 2.94D-16
 Largest Abelian subgroup         C2V     NOp   4
 Largest concise Abelian subgroup C2      NOp   2
                         Standard orientation:                         
 ---------------------------------------------------------------------
 Center     Atomic      Atomic             Coordinates (Angstroms)
 Number     Number       Type             X           Y           Z
 ---------------------------------------------------------------------
      1          6           0        0.000000    0.000000    0.426092
      2          1           0        0.000000    0.000000    1.508994
      3          7           0        0.000000    1.156840   -0.174390
      4          1           0        0.000000    2.006846    0.367861
      5          1           0        0.000000    1.253486   -1.179902
      6          7           0        0.000000   -1.156840   -0.174390
      7          1           0        0.000000   -1.253486   -1.179902
      8          1           0        0.000000   -2.006846    0.367861
 ---------------------------------------------------------------------
 Rotational constants (GHZ):     60.1365259     10.3635681      8.8401156
 Leave Link  202 at Thu Feb 26 00:26:48 2015, MaxMem= 1073741824 cpu:       0.0
 (Enter /apps/gaussian/g09_c01/g09/l301.exe)
 Standard basis: Aug-CC-pVTZ (5D, 7F)
 Ernie: Thresh=  0.10000D-02 Tol=  0.10000D-05 Strict=F.
 Ernie:  9 primitive shells out of 145 were deleted.
 There are    92 symmetry adapted basis functions of A1  symmetry.
 There are    37 symmetry adapted basis functions of A2  symmetry.
 There are    46 symmetry adapted basis functions of B1  symmetry.
 There are    78 symmetry adapted basis functions of B2  symmetry.
 Integral buffers will be    131072 words long.
 Raffenetti 2 integral format.
 Two-electron integral symmetry is turned on.
   253 basis functions,   351 primitive gaussians,   290 cartesian basis functions
    12 alpha electrons       12 beta electrons
       nuclear repulsion energy        80.0427555099 Hartrees.
 IExCor=20419 DFT=T Ex+Corr=CAM-B3LYP ExCW=0 ScaHFX=  1.000000
 ScaDFX=  1.000000  1.000000  1.000000  0.810000 ScalE2=  1.000000  1.000000
 IRadAn=      5 IRanWt=     -1 IRanGd=            0 ICorTp=0
  HFx wShort=  0.000000 wLong=  0.330000 cFull=  0.190000 cShort=  0.000000 cLong=  0.460000
  DFx wShort=  0.000000 wLong=  0.330000 cFull=  0.190000 cShort=  0.000000 cLong=  0.460000
 NAtoms=    8 NActive=    8 NUniq=    5 SFac= 2.56D+00 NAtFMM=   60 NAOKFM=F Big=F
 Leave Link  301 at Thu Feb 26 00:26:48 2015, MaxMem= 1073741824 cpu:       0.3
 (Enter /apps/gaussian/g09_c01/g09/l302.exe)
 NPDir=0 NMtPBC=     1 NCelOv=     1 NCel=       1 NClECP=     1 NCelD=      1
         NCelK=      1 NCelE2=     1 NClLst=     1 CellRange=     0.0.
 One-electron integrals computed using PRISM.
 One-electron integral symmetry used in STVInt
 NBasis=   253 RedAO= T  NBF=    92    37    46    78
 NBsUse=   253 1.00D-06 NBFU=    92    37    46    78
 Precomputing XC quadrature grid using
 IXCGrd= 2 IRadAn=           5 IRanWt=          -1 IRanGd=           0 AccXCQ= 0.00D+00.
 NRdTot=     686 NPtTot=      184860 NUsed=      189779 NTot=      189811
 NSgBfM=   290   290   290   290   290 NAtAll=     8     8.
 Leave Link  302 at Thu Feb 26 00:26:49 2015, MaxMem= 1073741824 cpu:       1.8
 (Enter /apps/gaussian/g09_c01/g09/l303.exe)
 DipDrv:  MaxL=1.
 Leave Link  303 at Thu Feb 26 00:26:49 2015, MaxMem= 1073741824 cpu:       0.2
 (Enter /apps/gaussian/g09_c01/g09/l401.exe)
 Initial guess read from the read-write file.
 B after Tr=     0.000000    0.000000    0.000000
         Rot=    1.000000    0.000000    0.000000    0.000000 Ang=   0.00 deg.
 Guess basis will be translated and rotated to current coordinates.
 Initial guess orbital symmetries:
       Occupied  (B2) (A1) (A1) (A1) (B2) (A1) (A1) (B2) (B2) (A1)
                 (B1) (A2)
       Virtual   (B1) (A1) (A1) (B2) (B1) (A1) (B2) (A1) (A1) (B2)
                 (A2) (A1) (B1) (B2) (A1) (B2) (A1) (B2) (B1) (A1)
                 (A2) (A1) (B2) (B2) (B1) (A1) (A1) (B1) (A1) (B2)
                 (A2) (A1) (B2) (A1) (B1) (A1) (A2) (B2) (B2) (A1)
                 (A1) (B2) (B2) (B1) (A1) (B2) (A2) (B1) (A1) (B2)
                 (B1) (A1) (A2) (B2) (A1) (B2) (A1) (A1) (A1) (B1)
                 (B2) (A2) (A1) (B2) (B1) (A1) (A2) (B2) (A1) (B1)
                 (A2) (B2) (B1) (A1) (B2) (A1) (B1) (B2) (A1) (A2)
                 (A1) (B1) (B2) (A2) (A1) (B1) (B2) (A1) (A2) (A1)
                 (B2) (B2) (A2) (B2) (A1) (B1) (A2) (B2) (A1) (A1)
                 (B1) (B1) (B2) (B2) (A1) (A2) (A1) (B2) (B1) (B2)
                 (A1) (A1) (A2) (A1) (B1) (B2) (B2) (B1) (A1) (A2)
                 (B1) (B2) (A1) (A1) (A2) (A1) (B2) (B2) (A1) (A1)
                 (A2) (B1) (B2) (B1) (A1) (B2) (B2) (A2) (B1) (B2)
                 (B2) (A1) (A2) (A1) (A1) (B2) (B1) (B2) (A1) (A1)
                 (B2) (B1) (A1) (A2) (B2) (B1) (B1) (A1) (A2) (A1)
                 (B2) (A1) (A1) (B2) (A2) (B1) (B2) (A1) (A2) (A1)
                 (B2) (A1) (A2) (B1) (B1) (A2) (A1) (B1) (A2) (B2)
                 (B2) (B1) (A1) (A2) (A1) (B2) (A1) (B1) (B2) (B2)
                 (A1) (B1) (A1) (A2) (B1) (A1) (B2) (B2) (A2) (A1)
                 (B2) (A1) (B1) (B2) (B2) (A1) (A2) (B2) (B2) (B1)
                 (A1) (B1) (A1) (A2) (B1) (A1) (B2) (A1) (A2) (B2)
                 (A2) (B1) (B2) (A2) (A1) (B1) (B2) (A1) (B2) (A1)
                 (B2) (A1) (A1) (A1) (B2) (B2) (A1) (B2) (A1) (B2)
                 (A1)
 The electronic state of the initial guess is 1-A1.
 Generating alternative initial guess.
 Harris functional with IExCor=20419 diagonalized for initial guess.
 ExpMin= 2.53D-02 ExpMax= 1.14D+04 ExpMxC= 3.89D+02 IAcc=3 IRadAn=         5 AccDes= 0.00D+00
 HarFok:  IExCor=20419 AccDes= 0.00D+00 IRadAn=         5 IDoV= 1
 ScaDFX=  1.000000  1.000000  1.000000  1.000000
 FoFCou: FMM=F IPFlag=           0 FMFlag=      100000 FMFlg1=           0
         NFxFlg=           0 DoJE=T BraDBF=F KetDBF=T FulRan=T
         Omega=  0.000000  0.000000  1.000000  0.000000  0.000000 ICntrl=     500 IOpCl=  0
         NMat0=    1 NMatS0=    1 NMatT0=    0 NMatD0=    1 NMtDS0=    0 NMtDT0=    0
         I1Cent=           4 NGrid=           0.
 Petite list used in FoFCou.
 Harris En= -144.698983327533    
 Leave Link  401 at Thu Feb 26 00:26:49 2015, MaxMem= 1073741824 cpu:       5.7
 (Enter /apps/gaussian/g09_c01/g09/l502.exe)
 Closed shell SCF:
 Requested convergence on RMS density matrix=1.00D-08 within 128 cycles.
 Requested convergence on MAX density matrix=1.00D-06.
 Requested convergence on             energy=1.00D-06.
 No special actions if energy rises.
 Using DIIS extrapolation, IDIIS=  1040.
 Integral symmetry usage will be decided dynamically.
       189694 words used for storage of precomputed grid.
 IEnd=      465070 IEndB=      465070 NGot=  1073741824 MDV=  1073377785
 LenX=  1073377785 LenY=  1073293244
 Fock matrices will be formed incrementally for  20 cycles.

 Cycle   1  Pass 1  IDiag  1:
 FoFJK:  IHMeth= 1 ICntrl=     0 DoSepK=T KAlg= 1 I1Cent= 0 FoldK=F
 FoFCou: FMM=F IPFlag=           0 FMFlag=      100000 FMFlg1=           0
         NFxFlg=           0 DoJE=T BraDBF=F KetDBF=F FulRan=T
         Omega=  0.000000  0.000000  1.000000  0.000000  0.000000 ICntrl=     500 IOpCl=  0
         NMat0=    1 NMatS0=    1 NMatT0=    0 NMatD0=    1 NMtDS0=    0 NMtDT0=    0
         I1Cent=           0 NGrid=           0.
 Petite list used in FoFCou.
 E= -150.373655845156    
 DIIS: error= 1.21D-03 at cycle   1 NSaved=   1.
 NSaved= 1 IEnMin= 1 EnMin= -150.373655845156     IErMin= 1 ErrMin= 1.21D-03
 ErrMax= 1.21D-03 EMaxC= 1.00D-01 BMatC= 1.87D-04 BMatP= 1.87D-04
 IDIUse=3 WtCom= 9.88D-01 WtEn= 1.21D-02
 Coeff-Com:  0.100D+01
 Coeff-En:   0.100D+01
 Coeff:      0.100D+01
 Gap=     0.404 Goal=   None    Shift=    0.000
 GapD=    0.404 DampG=2.000 DampE=1.000 DampFc=2.0000 IDamp=-1.
 RMSDP=7.84D-05 MaxDP=2.76D-03              OVMax= 2.95D-03

 Cycle   2  Pass 1  IDiag  1:
 RMSU=  5.48D-05    CP:  1.00D+00
 FoFJK:  IHMeth= 1 ICntrl=     0 DoSepK=T KAlg= 1 I1Cent= 0 FoldK=F
 E= -150.373754649559     Delta-E=       -0.000098804403 Rises=F Damp=F
 DIIS: error= 3.22D-04 at cycle   2 NSaved=   2.
 NSaved= 2 IEnMin= 2 EnMin= -150.373754649559     IErMin= 2 ErrMin= 3.22D-04
 ErrMax= 3.22D-04 EMaxC= 1.00D-01 BMatC= 1.46D-05 BMatP= 1.87D-04
 IDIUse=3 WtCom= 9.97D-01 WtEn= 3.22D-03
 Coeff-Com:  0.117D+00 0.883D+00
 Coeff-En:   0.000D+00 0.100D+01
 Coeff:      0.116D+00 0.884D+00
 Gap=     0.394 Goal=   None    Shift=    0.000
 RMSDP=1.26D-05 MaxDP=4.52D-04 DE=-9.88D-05 OVMax= 1.21D-03

 Cycle   3  Pass 1  IDiag  1:
 RMSU=  8.80D-06    CP:  1.00D+00  1.00D+00
 FoFJK:  IHMeth= 1 ICntrl=     0 DoSepK=T KAlg= 1 I1Cent= 0 FoldK=F
 E= -150.373762003903     Delta-E=       -0.000007354344 Rises=F Damp=F
 DIIS: error= 2.11D-04 at cycle   3 NSaved=   3.
 NSaved= 3 IEnMin= 3 EnMin= -150.373762003903     IErMin= 3 ErrMin= 2.11D-04
 ErrMax= 2.11D-04 EMaxC= 1.00D-01 BMatC= 5.73D-06 BMatP= 1.46D-05
 IDIUse=3 WtCom= 9.98D-01 WtEn= 2.11D-03
 Coeff-Com: -0.140D-01 0.378D+00 0.636D+00
 Coeff-En:   0.000D+00 0.224D+00 0.776D+00
 Coeff:     -0.140D-01 0.378D+00 0.636D+00
 Gap=     0.394 Goal=   None    Shift=    0.000
 RMSDP=4.23D-06 MaxDP=1.47D-04 DE=-7.35D-06 OVMax= 4.60D-04

 Cycle   4  Pass 1  IDiag  1:
 RMSU=  1.63D-06    CP:  1.00D+00  1.02D+00  7.40D-01
 FoFJK:  IHMeth= 1 ICntrl=     0 DoSepK=T KAlg= 1 I1Cent= 0 FoldK=F
 E= -150.373766521787     Delta-E=       -0.000004517884 Rises=F Damp=F
 DIIS: error= 1.88D-05 at cycle   4 NSaved=   4.
 NSaved= 4 IEnMin= 4 EnMin= -150.373766521787     IErMin= 4 ErrMin= 1.88D-05
 ErrMax= 1.88D-05 EMaxC= 1.00D-01 BMatC= 4.74D-08 BMatP= 5.73D-06
 IDIUse=1 WtCom= 1.00D+00 WtEn= 0.00D+00
 Coeff-Com: -0.441D-02 0.612D-01 0.137D+00 0.806D+00
 Coeff:     -0.441D-02 0.612D-01 0.137D+00 0.806D+00
 Gap=     0.394 Goal=   None    Shift=    0.000
 RMSDP=5.60D-07 MaxDP=2.86D-05 DE=-4.52D-06 OVMax= 1.17D-04

 Cycle   5  Pass 1  IDiag  1:
 RMSU=  3.75D-07    CP:  1.00D+00  1.02D+00  7.50D-01  9.90D-01
 FoFJK:  IHMeth= 1 ICntrl=     0 DoSepK=T KAlg= 1 I1Cent= 0 FoldK=F
 E= -150.373766549237     Delta-E=       -0.000000027450 Rises=F Damp=F
 DIIS: error= 1.35D-05 at cycle   5 NSaved=   5.
 NSaved= 5 IEnMin= 5 EnMin= -150.373766549237     IErMin= 5 ErrMin= 1.35D-05
 ErrMax= 1.35D-05 EMaxC= 1.00D-01 BMatC= 1.71D-08 BMatP= 4.74D-08
 IDIUse=1 WtCom= 1.00D+00 WtEn= 0.00D+00
 Coeff-Com: -0.614D-04-0.241D-01-0.235D-01 0.385D+00 0.663D+00
 Coeff:     -0.614D-04-0.241D-01-0.235D-01 0.385D+00 0.663D+00
 Gap=     0.394 Goal=   None    Shift=    0.000
 RMSDP=2.50D-07 MaxDP=1.62D-05 DE=-2.74D-08 OVMax= 3.81D-05

 Cycle   6  Pass 1  IDiag  1:
 RMSU=  9.84D-08    CP:  1.00D+00  1.02D+00  7.58D-01  1.04D+00  7.21D-01
 FoFJK:  IHMeth= 1 ICntrl=     0 DoSepK=T KAlg= 1 I1Cent= 0 FoldK=F
 E= -150.373766562909     Delta-E=       -0.000000013672 Rises=F Damp=F
 DIIS: error= 1.03D-06 at cycle   6 NSaved=   6.
 NSaved= 6 IEnMin= 6 EnMin= -150.373766562909     IErMin= 6 ErrMin= 1.03D-06
 ErrMax= 1.03D-06 EMaxC= 1.00D-01 BMatC= 1.00D-10 BMatP= 1.71D-08
 IDIUse=1 WtCom= 1.00D+00 WtEn= 0.00D+00
 Coeff-Com:  0.510D-04-0.556D-02-0.704D-02 0.512D-01 0.120D+00 0.841D+00
 Coeff:      0.510D-04-0.556D-02-0.704D-02 0.512D-01 0.120D+00 0.841D+00
 Gap=     0.394 Goal=   None    Shift=    0.000
 RMSDP=3.07D-08 MaxDP=1.02D-06 DE=-1.37D-08 OVMax= 4.42D-06

 Cycle   7  Pass 1  IDiag  1:
 RMSU=  2.06D-08    CP:  1.00D+00  1.02D+00  7.58D-01  1.04D+00  7.31D-01
                    CP:  1.05D+00
 FoFJK:  IHMeth= 1 ICntrl=     0 DoSepK=T KAlg= 1 I1Cent= 0 FoldK=F
 E= -150.373766563011     Delta-E=       -0.000000000103 Rises=F Damp=F
 DIIS: error= 2.62D-07 at cycle   7 NSaved=   7.
 NSaved= 7 IEnMin= 7 EnMin= -150.373766563011     IErMin= 7 ErrMin= 2.62D-07
 ErrMax= 2.62D-07 EMaxC= 1.00D-01 BMatC= 4.69D-12 BMatP= 1.00D-10
 IDIUse=1 WtCom= 1.00D+00 WtEn= 0.00D+00
 Coeff-Com:  0.173D-04 0.311D-03-0.839D-04-0.132D-01-0.226D-01 0.962D-01
 Coeff-Com:  0.939D+00
 Coeff:      0.173D-04 0.311D-03-0.839D-04-0.132D-01-0.226D-01 0.962D-01
 Coeff:      0.939D+00
 Gap=     0.394 Goal=   None    Shift=    0.000
 RMSDP=9.36D-09 MaxDP=3.52D-07 DE=-1.03D-10 OVMax= 1.00D-06

 SCF Done:  E(RCAM-B3LYP) =  -150.373766563     A.U. after    7 cycles
             Convg  =    0.9359D-08             -V/T =  2.0057
 KE= 1.495262169394D+02 PE=-5.040035728919D+02 EE= 1.240608338796D+02
 Leave Link  502 at Thu Feb 26 00:27:16 2015, MaxMem= 1073741824 cpu:     209.1
 (Enter /apps/gaussian/g09_c01/g09/l801.exe)
 Range of M.O.s used for correlation:     1   253
 NBasis=   253 NAE=    12 NBE=    12 NFC=     0 NFV=     0
 NROrb=    253 NOA=    12 NOB=    12 NVA=   241 NVB=   241

 **** Warning!!: The largest alpha MO coefficient is  0.47818345D+02

 Leave Link  801 at Thu Feb 26 00:27:16 2015, MaxMem= 1073741824 cpu:       0.1
 (Enter /apps/gaussian/g09_c01/g09/l1002.exe)
 Minotr:  Closed shell wavefunction.
          Direct CPHF calculation.
          Differentiating once with respect to electric field.
                with respect to dipole field.
          Electric field/nuclear overlap derivatives assumed to be zero.
          Using symmetry in CPHF.
          Requested convergence is 1.0D-08 RMS, and 1.0D-07 maximum.
          Secondary convergence is 1.0D-12 RMS, and 1.0D-12 maximum.
          NewPWx=F KeepS1=T KeepF1=T KeepIn=T MapXYZ=F SortEE=F KeepMc=T.
          MDV=    1073741756 using IRadAn=       1.
 Generate precomputed XC quadrature information.
          Solving linear equations simultaneously, MaxMat=       0.
          There are     3 degrees of freedom in the 1st order CPHF.  IDoFFX=0.
      3 vectors produced by pass  0 Test12= 9.64D-14 3.33D-08 XBig12= 1.85D+01 3.40D+00.
 AX will form     3 AO Fock derivatives at one time.
 FoFJK:  IHMeth= 1 ICntrl=     0 DoSepK=T KAlg= 1 I1Cent= 0 FoldK=F
 FoFCou: FMM=F IPFlag=           0 FMFlag=      100000 FMFlg1=           0
         NFxFlg=           0 DoJE=T BraDBF=F KetDBF=F FulRan=T
         Omega=  0.000000  0.000000  1.000000  0.000000  0.000000 ICntrl=     500 IOpCl=  0
         NMat0=    3 NMatS0=    3 NMatT0=    0 NMatD0=    3 NMtDS0=    0 NMtDT0=    0
         I1Cent=           0 NGrid=           0.
 Symmetry not used in FoFCou.
      3 vectors produced by pass  1 Test12= 9.64D-14 3.33D-08 XBig12= 3.16D+00 4.92D-01.
 FoFJK:  IHMeth= 1 ICntrl=     0 DoSepK=T KAlg= 1 I1Cent= 0 FoldK=F
      3 vectors produced by pass  2 Test12= 9.64D-14 3.33D-08 XBig12= 5.24D-01 2.96D-01.
 FoFJK:  IHMeth= 1 ICntrl=     0 DoSepK=T KAlg= 1 I1Cent= 0 FoldK=F
      3 vectors produced by pass  3 Test12= 9.64D-14 3.33D-08 XBig12= 1.95D-02 4.18D-02.
 FoFJK:  IHMeth= 1 ICntrl=     0 DoSepK=T KAlg= 1 I1Cent= 0 FoldK=F
      3 vectors produced by pass  4 Test12= 9.64D-14 3.33D-08 XBig12= 6.38D-04 4.59D-03.
 FoFJK:  IHMeth= 1 ICntrl=     0 DoSepK=T KAlg= 1 I1Cent= 0 FoldK=F
      3 vectors produced by pass  5 Test12= 9.64D-14 3.33D-08 XBig12= 1.14D-04 4.49D-03.
 FoFJK:  IHMeth= 1 ICntrl=     0 DoSepK=T KAlg= 1 I1Cent= 0 FoldK=F
      3 vectors produced by pass  6 Test12= 9.64D-14 3.33D-08 XBig12= 3.57D-06 5.37D-04.
 FoFJK:  IHMeth= 1 ICntrl=     0 DoSepK=T KAlg= 1 I1Cent= 0 FoldK=F
      3 vectors produced by pass  7 Test12= 9.64D-14 3.33D-08 XBig12= 8.83D-08 6.74D-05.
 FoFJK:  IHMeth= 1 ICntrl=     0 DoSepK=T KAlg= 1 I1Cent= 0 FoldK=F
      3 vectors produced by pass  8 Test12= 9.64D-14 3.33D-08 XBig12= 1.06D-09 8.99D-06.
 FoFJK:  IHMeth= 1 ICntrl=     0 DoSepK=T KAlg= 1 I1Cent= 0 FoldK=F
      2 vectors produced by pass  9 Test12= 9.64D-14 3.33D-08 XBig12= 1.11D-11 6.56D-07.
 FoFJK:  IHMeth= 1 ICntrl=     0 DoSepK=T KAlg= 1 I1Cent= 0 FoldK=F
      1 vectors produced by pass 10 Test12= 9.64D-14 3.33D-08 XBig12= 1.44D-13 6.07D-08.
 FoFJK:  IHMeth= 1 ICntrl=     0 DoSepK=T KAlg= 1 I1Cent= 0 FoldK=F
 Inverted reduced A of dimension    30 with in-core refinement.
 End of Minotr Frequency-dependent properties file   721 does not exist.
 End of Minotr Frequency-dependent properties file   722 does not exist.
 Leave Link 1002 at Thu Feb 26 00:28:58 2015, MaxMem= 1073741824 cpu:     813.3
 (Enter /apps/gaussian/g09_c01/g09/l1101.exe)
 Using compressed storage, NAtomX=     8.
 Will process   9 centers per pass.
 Leave Link 1101 at Thu Feb 26 00:28:58 2015, MaxMem= 1073741824 cpu:       2.1
 (Enter /apps/gaussian/g09_c01/g09/l1102.exe)
 Symmetrizing basis deriv contribution to polar:
 IMax=3 JMax=2 DiffMx= 0.00D+00
 Leave Link 1102 at Thu Feb 26 00:28:58 2015, MaxMem= 1073741824 cpu:       0.3
 (Enter /apps/gaussian/g09_c01/g09/l1110.exe)
 Forming Gx(P) for the SCF density, NAtomX=     8.
 Integral derivatives from FoFDir/FoFCou, PRISM(SPDF).
 Do as many integral derivatives as possible in FoFDir.
 G2DrvN: MDV=    1073741656.
 G2DrvN: will do     9 centers at a time, making    1 passes doing MaxLOS=3.
 Calling FoFCou, ICntrl=  3107 FMM=F I1Cent=   0 AccDes= 0.00D+00.
 FoFJK:  IHMeth= 1 ICntrl=  3107 DoSepK=T KAlg= 1 I1Cent= 0 FoldK=F
 FoFCou: FMM=F IPFlag=           0 FMFlag=      100000 FMFlg1=           0
         NFxFlg=           0 DoJE=F BraDBF=F KetDBF=F FulRan=T
         Omega=  0.000000  0.000000  1.000000  0.000000  0.000000 ICntrl=    3507 IOpCl=  0
         NMat0=    1 NMatS0=    1 NMatT0=    0 NMatD0=    4 NMtDS0=    3 NMtDT0=    0
         I1Cent=           0 NGrid=           0.
 Petite list used in FoFCou.
 FoFDir/FoFCou used for L=0 through L=3.
 End of G2Drv Frequency-dependent properties file   721 does not exist.
 End of G2Drv Frequency-dependent properties file   722 does not exist.
[...]
 asis sets
                                                            Raman Spectrum
 
     33  33          3                                                 1  1 1      1 1       11 1                                    
     66  55          2                                                 7  7 6      4 3       11 0          7  66 55                  
     77  75          1                                                 8  0 2      2 8       30 4          3  41 52                  
     43  15          7                                                 6  1 2      9 8       81 5          2  68 63                  
 
     XX  XX          X                                                 X  X X      X X       XX X              X  X                  
     XX  X           X                                                             X         X                                       
     XX  X           X                                                                                                               
     X   X           X                                                                                                               
         X           X                                                                                                               
         X           X                                                                                                               
         X           X                                                                                                               
         X                                                                                                                           
         X                                                                                                                           
         X                                                                                                                           
         X                                                                                                                           
         X                                                                                                                           
         X                                                                                                                           
         X                                                                                                                           
         X                                                                                                                           
         X                                                                                                                           
         X                                                                                                                           
         X                                                                                                                           
         X                                                                                                                           
         X                                                                                                                           
 
 ***** Axes restored to original set *****
 -------------------------------------------------------------------
 Center     Atomic                   Forces (Hartrees/Bohr)
 Number     Number              X              Y              Z
 -------------------------------------------------------------------
      1        6           0.000000000   -0.000000130    0.000000000
      2        1           0.000000000   -0.000000048    0.000000000
      3        7          -0.000000213   -0.000000004    0.000000000
      4        1           0.000000042    0.000000029    0.000000000
      5        1          -0.000000019    0.000000064    0.000000000
      6        7           0.000000213   -0.000000004    0.000000000
      7        1           0.000000019    0.000000064    0.000000000
      8        1          -0.000000042    0.000000029    0.000000000
 -------------------------------------------------------------------
 Cartesian Forces:  Max     0.000000213 RMS     0.000000072
 Force constants in Cartesian coordinates: 
                1             2             3             4             5 
      1  0.949553D+00
      2  0.000000D+00  0.851057D+00
      3  0.000000D+00  0.000000D+00  0.176072D+00
      4 -0.654772D-01  0.000000D+00  0.000000D+00  0.709461D-01
      5  0.000000D+00 -0.347751D+00  0.000000D+00  0.000000D+00  0.363075D+00
      6  0.000000D+00  0.000000D+00 -0.569639D-01  0.000000D+00  0.000000D+00
      7 -0.417012D+00  0.162804D+00  0.000000D+00  0.345152D-04  0.178462D-02
      8  0.144562D+00 -0.258721D+00  0.000000D+00  0.359173D-01 -0.985544D-02
      9  0.000000D+00  0.000000D+00 -0.561707D-01  0.000000D+00  0.000000D+00
     10 -0.281195D-01 -0.171806D-01  0.000000D+00  0.119973D-02  0.238589D-03
     11  0.165955D-01  0.166821D-01  0.000000D+00  0.988156D-03  0.805263D-03
     12  0.000000D+00  0.000000D+00 -0.537861D-02  0.000000D+00  0.000000D+00
     13  0.309374D-02  0.374593D-01  0.000000D+00 -0.396868D-02  0.981818D-03
     14  0.882164D-02 -0.961477D-02  0.000000D+00  0.919182D-03  0.138825D-02
     15  0.000000D+00  0.000000D+00  0.199545D-02  0.000000D+00  0.000000D+00
     16 -0.417012D+00 -0.162804D+00  0.000000D+00  0.345150D-04 -0.178462D-02
     17 -0.144562D+00 -0.258721D+00  0.000000D+00 -0.359173D-01 -0.985544D-02
     18  0.000000D+00  0.000000D+00 -0.561707D-01  0.000000D+00  0.000000D+00
     19  0.309375D-02 -0.374593D-01  0.000000D+00 -0.396868D-02 -0.981818D-03
     20 -0.882165D-02 -0.961478D-02  0.000000D+00 -0.919183D-03  0.138825D-02
     21  0.000000D+00  0.000000D+00  0.199545D-02  0.000000D+00  0.000000D+00
     22 -0.281195D-01  0.171806D-01  0.000000D+00  0.119973D-02 -0.238590D-03
     23 -0.165955D-01  0.166821D-01  0.000000D+00 -0.988155D-03  0.805263D-03
     24  0.000000D+00  0.000000D+00 -0.537861D-02  0.000000D+00  0.000000D+00
                6             7             8             9            10 
      6  0.324698D-01
      7  0.000000D+00  0.918969D+00
      8  0.000000D+00 -0.195431D-01  0.868850D+00
      9  0.863027D-02  0.000000D+00  0.000000D+00  0.598618D-01
     10  0.000000D+00 -0.337358D+00 -0.174937D+00  0.000000D+00  0.352169D+00
     11  0.000000D+00 -0.179586D+00 -0.193360D+00  0.000000D+00  0.182686D+00
     12 -0.425678D-02  0.000000D+00  0.000000D+00 -0.114130D-01  0.000000D+00
     13  0.000000D+00 -0.798484D-01  0.275042D-01  0.000000D+00  0.108107D-01
     14  0.000000D+00  0.265220D-01 -0.443216D+00  0.000000D+00  0.457501D-02
     15  0.787356D-02  0.000000D+00  0.000000D+00 -0.176377D-01  0.000000D+00
     16  0.000000D+00 -0.888563D-01 -0.925901D-02  0.000000D+00  0.212689D-02
     17  0.000000D+00  0.925901D-02  0.374547D-01  0.000000D+00  0.528844D-02
     18  0.863027D-02  0.000000D+00  0.000000D+00  0.147508D-01  0.000000D+00
     19  0.000000D+00  0.194372D-02  0.104360D-02  0.000000D+00 -0.124820D-03
     20  0.000000D+00  0.553010D-02  0.384944D-03  0.000000D+00 -0.244112D-03
     21  0.787356D-02  0.000000D+00  0.000000D+00 -0.425279D-02  0.000000D+00
     22  0.000000D+00  0.212689D-02 -0.528844D-02  0.000000D+00 -0.704571D-03
     23  0.000000D+00 -0.677051D-02 -0.153793D-02  0.000000D+00 -0.426391D-03
     24 -0.425678D-02  0.000000D+00  0.000000D+00  0.623135D-02  0.000000D+00
               11            12            13            14            15 
     11  0.185911D+00
     12  0.000000D+00  0.133432D-01
     13 -0.281097D-01  0.000000D+00  0.697428D-01
     14 -0.884932D-02  0.000000D+00 -0.360570D-01  0.459599D+00
     15  0.000000D+00 -0.899926D-03  0.000000D+00  0.000000D+00  0.131672D-01
     16  0.677051D-02  0.000000D+00  0.194372D-02 -0.553010D-02  0.000000D+00
     17 -0.153793D-02  0.000000D+00 -0.104360D-02  0.384944D-03  0.000000D+00
     18  0.000000D+00  0.623135D-02  0.000000D+00  0.000000D+00 -0.425279D-02
     19  0.229785D-03  0.000000D+00 -0.164906D-02  0.505162D-03  0.000000D+00
     20 -0.522960D-03  0.000000D+00 -0.505162D-03  0.830235D-03  0.000000D+00
     21  0.000000D+00 -0.624173D-03  0.000000D+00  0.000000D+00  0.378392D-03
     22  0.426391D-03  0.000000D+00 -0.124820D-03  0.244112D-03  0.000000D+00
     23  0.872396D-03  0.000000D+00 -0.229785D-03 -0.522960D-03  0.000000D+00
     24  0.000000D+00  0.299795D-02  0.000000D+00  0.000000D+00 -0.624173D-03
               16            17            18            19            20 
     16  0.918969D+00
     17  0.195431D-01  0.868850D+00
     18  0.000000D+00  0.000000D+00  0.598618D-01
     19 -0.798484D-01 -0.275042D-01  0.000000D+00  0.697428D-01
     20 -0.265220D-01 -0.443216D+00  0.000000D+00  0.360570D-01  0.459599D+00
     21  0.000000D+00  0.000000D+00 -0.176377D-01  0.000000D+00  0.000000D+00
     22 -0.337358D+00  0.174937D+00  0.000000D+00  0.108107D-01 -0.457501D-02
     23  0.179586D+00 -0.193360D+00  0.000000D+00  0.281097D-01 -0.884932D-02
     24  0.000000D+00  0.000000D+00 -0.114130D-01  0.000000D+00  0.000000D+00
               21            22            23            24 
     21  0.131672D-01
     22  0.000000D+00  0.352169D+00
     23  0.000000D+00 -0.182686D+00  0.185911D+00
     24 -0.899926D-03  0.000000D+00  0.000000D+00  0.133432D-01
 Red2BG is reusing G-inverse.
 Force constants in internal coordinates: 
                1             2             3             4             5 
      1  0.363075D+00
      2  0.619668D-02  0.624508D+00
      3  0.619668D-02  0.643572D-01  0.624508D+00
      4  0.634316D-03  0.648216D-02 -0.601538D-02  0.469744D+00
      5 -0.128787D-02  0.951363D-02 -0.384229D-02  0.324401D-03  0.462898D+00
      6 -0.128787D-02 -0.384229D-02  0.951364D-02  0.483150D-03  0.934404D-03
      7  0.634317D-03 -0.601538D-02  0.648216D-02  0.366191D-03  0.483150D-03
      8  0.339195D-02  0.744940D-02 -0.331742D-01 -0.244314D-02  0.365575D-02
      9  0.339196D-02 -0.331742D-01  0.744940D-02  0.713830D-03  0.100533D-02
     10 -0.678391D-02  0.257248D-01  0.257248D-01  0.172931D-02 -0.466108D-02
     11 -0.140576D-02  0.167782D-01  0.356917D-02  0.188375D-02 -0.783689D-02
     12  0.176262D-02  0.753251D-02 -0.790571D-03 -0.673316D-02  0.223994D-02
     13 -0.356862D-03 -0.243107D-01 -0.277859D-02  0.484941D-02  0.559696D-02
     14  0.176262D-02 -0.790569D-03  0.753251D-02 -0.148899D-03  0.909934D-03
     15 -0.140576D-02  0.356917D-02  0.167782D-01  0.173288D-03 -0.724358D-03
     16 -0.356861D-03 -0.277860D-02 -0.243107D-01 -0.243893D-04 -0.185576D-03
     17  0.000000D+00  0.000000D+00  0.000000D+00  0.000000D+00  0.000000D+00
     18  0.000000D+00  0.000000D+00  0.000000D+00  0.000000D+00  0.000000D+00
     19  0.000000D+00  0.000000D+00  0.000000D+00  0.000000D+00  0.000000D+00
     20  0.000000D+00  0.000000D+00  0.000000D+00  0.000000D+00  0.000000D+00
     21  0.000000D+00  0.000000D+00  0.000000D+00  0.000000D+00  0.000000D+00
     22  0.000000D+00  0.000000D+00  0.000000D+00  0.000000D+00  0.000000D+00
     23  0.000000D+00  0.000000D+00  0.000000D+00  0.000000D+00  0.000000D+00
     24  0.000000D+00  0.000000D+00  0.000000D+00  0.000000D+00  0.000000D+00
                6             7             8             9            10 
      6  0.462898D+00
      7  0.324402D-03  0.469744D+00
      8  0.100533D-02  0.713831D-03  0.113006D+00
      9  0.365575D-02 -0.244314D-02 -0.355507D-01  0.113006D+00
     10 -0.466108D-02  0.172931D-02 -0.774557D-01 -0.774557D-01  0.154911D+00
     11 -0.724358D-03  0.173288D-03 -0.839841D-02 -0.385593D-02  0.122543D-01
     12  0.909934D-03 -0.148900D-03  0.954804D-02 -0.268446D-03 -0.927959D-02
     13 -0.185575D-03 -0.243884D-04 -0.114962D-02  0.412438D-02 -0.297475D-02
     14  0.223994D-02 -0.673316D-02 -0.268446D-03  0.954804D-02 -0.927959D-02
     15 -0.783689D-02  0.188375D-02 -0.385593D-02 -0.839841D-02  0.122543D-01
     16  0.559696D-02  0.484941D-02  0.412438D-02 -0.114963D-02 -0.297475D-02
     17  0.000000D+00  0.000000D+00  0.000000D+00  0.000000D+00  0.000000D+00
     18  0.000000D+00  0.000000D+00  0.000000D+00  0.000000D+00  0.000000D+00
     19  0.000000D+00  0.000000D+00  0.000000D+00  0.000000D+00  0.000000D+00
     20  0.000000D+00  0.000000D+00  0.000000D+00  0.000000D+00  0.000000D+00
     21  0.000000D+00  0.000000D+00  0.000000D+00  0.000000D+00  0.000000D+00
     22  0.000000D+00  0.000000D+00  0.000000D+00  0.000000D+00  0.000000D+00
     23  0.000000D+00  0.000000D+00  0.000000D+00  0.000000D+00  0.000000D+00
     24  0.000000D+00  0.000000D+00  0.000000D+00  0.000000D+00  0.000000D+00
               11            12            13            14            15 
     11  0.881502D-01
     12 -0.476632D-01  0.861647D-01
     13 -0.404869D-01 -0.385015D-01  0.789884D-01
     14 -0.164323D-02  0.252304D-02 -0.879813D-03  0.861647D-01
     15  0.211145D-02 -0.164323D-02 -0.468222D-03 -0.476632D-01  0.881502D-01
     16 -0.468222D-03 -0.879812D-03  0.134803D-02 -0.385015D-01 -0.404869D-01
     17  0.000000D+00  0.000000D+00  0.000000D+00  0.000000D+00  0.000000D+00
     18  0.000000D+00  0.000000D+00  0.000000D+00  0.000000D+00  0.000000D+00
     19  0.000000D+00  0.000000D+00  0.000000D+00  0.000000D+00  0.000000D+00
     20  0.000000D+00  0.000000D+00  0.000000D+00  0.000000D+00  0.000000D+00
     21  0.000000D+00  0.000000D+00  0.000000D+00  0.000000D+00  0.000000D+00
     22  0.000000D+00  0.000000D+00  0.000000D+00  0.000000D+00  0.000000D+00
     23  0.000000D+00  0.000000D+00  0.000000D+00  0.000000D+00  0.000000D+00
     24  0.000000D+00  0.000000D+00  0.000000D+00  0.000000D+00  0.000000D+00
               16            17            18            19            20 
     16  0.789884D-01
     17  0.000000D+00  0.111698D-01
     18  0.000000D+00  0.456065D-02  0.142960D-01
     19  0.000000D+00  0.411316D-02 -0.624585D-02  0.169177D-01
     20  0.000000D+00 -0.249594D-02  0.348946D-02  0.655866D-02  0.125441D-01
     21  0.000000D+00 -0.437938D-02 -0.608449D-02  0.642712D-02  0.472201D-02
     22  0.000000D+00 -0.413141D-02 -0.437938D-02  0.292518D-02  0.267721D-02
     23  0.000000D+00  0.267721D-02  0.472201D-02 -0.637739D-02 -0.433259D-02
     24  0.000000D+00  0.292518D-02  0.642712D-02 -0.987933D-02 -0.637739D-02
               21            22            23            24 
     21  0.142960D-01
     22  0.456065D-02  0.111698D-01
     23  0.348946D-02 -0.249594D-02  0.125441D-01
     24 -0.624585D-02  0.411316D-02  0.655866D-02  0.169177D-01
 Leave Link  716 at Thu Feb 26 00:49:57 2015, MaxMem= 1073741824 cpu:       0.1
 (Enter /apps/gaussian/g09_c01/g09/l9999.exe)
 1\1\GINC-CX1-1-2-1\Freq\RCAM-B3LYP\Aug-CC-pVTZ\C1H5N2(1+)\JMF02\26-Feb
 -2015\0\\#p opt(VeryTight,CalcAll,Raman) Integral(Grid=UltraFine) CAM-
 b3lyp/AUG-cc-pVTZ\\Autjob by noodles.sh | Great noodly basis sets\\1,1
 \C,0.,0.4262933611,0.\H,0.,1.5092186999,0.\N,1.1571771153,-0.174277498
 4,0.\H,2.0071736947,0.3681520937,0.\H,1.2538996433,-1.1798676257,0.\N,
 -1.1571771153,-0.1742774984,0.\H,-1.2538996433,-1.1798676257,0.\H,-2.0
 071736947,0.3681520937,0.\\Version=EM64L-G09RevC.01\State=1-A1\HF=-150
 .3737669\RMSD=6.724e-09\RMSF=7.194e-08\ZeroPoint=0.0728409\Thermal=0.0
 765523\Dipole=0.,-0.0714163,0.\DipoleDeriv=2.0091466,0.,0.,0.,0.408783
 2,0.,0.,0.,0.3175575,0.0931168,0.,0.,0.,0.1496289,0.,0.,0.,0.1520649,-
 1.1493104,0.0674714,0.,0.4863033,-0.3002273,0.,0.,0.,-0.3972326,0.3975
 789,0.0556629,0.,0.1063115,0.2168212,0.,0.,0.,0.3301662,0.2005998,-0.0
 621711,0.,-0.1186715,0.3042001,0.,0.,0.,0.3322552,-1.1493104,-0.067471
 4,0.,-0.4863033,-0.3002273,0.,0.,0.,-0.3972326,0.2005998,0.0621711,0.,
 0.1186715,0.3042001,0.,0.,0.,0.3322552,0.3975789,-0.0556629,0.,-0.1063
 115,0.2168212,0.,0.,0.,0.3301662\Polar=36.773247,0.,24.7112725,0.,0.,1
 8.1595227\PolarDeriv=0.,0.8453623,-0.0000006,0.,0.,0.,5.7969761,0.,-3.
 5204472,0.,0.,1.4684991,0.,0.,0.,0.,1.3732683,0.,0.,0.8655185,0.,0.,0.
 ,0.,0.900855,0.,7.2142333,0.,0.,1.2615123,0.,0.,0.,-0.0000001,0.836972
 3,0.,3.1080954,-1.009639,-0.3120076,0.,0.,1.6949679,-3.6639032,-0.3478
 086,2.9258759,0.,0.,-0.8545982,0.,0.,0.,3.6755057,-0.8264379,0.,6.6864
 411,1.1566509,1.6650706,0.,0.,0.9072336,2.5475602,1.771745,1.266233,0.
 ,0.,0.5323636,0.,0.,0.,0.3124017,0.217389,0.,1.9974052,-1.0024523,0.46
 87234,0.,0.,0.2078444,-2.2325726,2.1178197,-6.0390022,0.,0.,-1.0427711
 ,0.,0.,0.,0.0356383,-0.4960715,0.,-3.1080954,-1.009639,0.3120076,0.,0.
 ,-1.6949679,-3.6639032,0.3478086,2.9258759,0.,0.,-0.8545982,0.,0.,0.,-
 3.6755057,-0.8264379,0.,-1.9974052,-1.0024523,-0.4687234,0.,0.,-0.2078
 444,-2.2325726,-2.1178197,-6.0390022,0.,0.,-1.0427711,0.,0.,0.,-0.0356
 383,-0.4960715,0.,-6.6864411,1.1566509,-1.6650706,0.,0.,-0.9072336,2.5
 475602,-1.771745,1.266233,0.,0.,0.5323636,0.,0.,0.,-0.3124017,0.217389
 ,0.\HyperPolar=0.,30.8801355,0.,-5.4991682,0.,0.,0.,0.,0.1925401,0.\PG
 =C02V [C2(C1H1),SGV(H4N2)]\NImag=0\\0.94955286,0.00000001,0.85105733,0
 .,0.,0.17607153,-0.06547719,0.,0.,0.07094605,0.,-0.34775089,0.,0.,0.36
 307474,0.,0.,-0.05696390,0.,0.,0.03246979,-0.41701210,0.16280430,0.,0.
 00003452,0.00178462,0.,0.91896943,0.14456218,-0.25872053,0.,0.03591733
 ,-0.00985544,0.,-0.01954310,0.86885033,0.,0.,-0.05617065,0.,0.,0.00863
 027,0.,0.,0.05986178,-0.02811947,-0.01718059,0.,0.00119973,0.00023859,
 0.,-0.33735772,-0.17493680,0.,0.35216929,0.01659547,0.01668209,0.,0.00
 098816,0.00080526,0.,-0.17958644,-0.19336040,0.,0.18268587,0.18591087,
 0.,0.,-0.00537861,0.,0.,-0.00425678,0.,0.,-0.01141299,0.,0.,0.01334317
 ,0.00309374,0.03745926,0.,-0.00396868,0.00098182,0.,-0.07984841,0.0275
 0424,0.,0.01081066,-0.02810974,0.,0.06974284,0.00882164,-0.00961477,0.
 ,0.00091918,0.00138825,0.,0.02652203,-0.44321570,0.,0.00457501,-0.0088
 4932,0.,-0.03605703,0.45959932,0.,0.,0.00199545,0.,0.,0.00787356,0.,0.
 ,-0.01763773,0.,0.,-0.00089993,0.,0.,0.01316722,-0.41701211,-0.1628043
 0,0.,0.00003451,-0.00178462,0.,-0.08885632,-0.00925901,0.,0.00212689,0
 .00677051,0.,0.00194372,-0.00553010,0.,0.91896943,-0.14456219,-0.25872
 053,0.,-0.03591733,-0.00985544,0.,0.00925901,0.03745473,0.,0.00528844,
 -0.00153793,0.,-0.00104360,0.00038494,0.,0.01954310,0.86885033,0.,0.,-
 0.05617065,0.,0.,0.00863027,0.,0.,0.01475076,0.,0.,0.00623135,0.,0.,-0
 .00425279,0.,0.,0.05986178,0.00309375,-0.03745926,0.,-0.00396868,-0.00
 098182,0.,0.00194372,0.00104360,0.,-0.00012482,0.00022979,0.,-0.001649
 06,0.00050516,0.,-0.07984841,-0.02750424,0.,0.06974284,-0.00882165,-0.
 00961478,0.,-0.00091918,0.00138825,0.,0.00553010,0.00038494,0.,-0.0002
 4411,-0.00052296,0.,-0.00050516,0.00083023,0.,-0.02652203,-0.44321570,
 0.,0.03605703,0.45959932,0.,0.,0.00199545,0.,0.,0.00787356,0.,0.,-0.00
 425279,0.,0.,-0.00062417,0.,0.,0.00037839,0.,0.,-0.01763773,0.,0.,0.01
 316722,-0.02811947,0.01718059,0.,0.00119973,-0.00023859,0.,0.00212689,
 -0.00528844,0.,-0.00070457,0.00042639,0.,-0.00012482,0.00024411,0.,-0.
 33735772,0.17493680,0.,0.01081066,-0.00457501,0.,0.35216929,-0.0165954
 7,0.01668209,0.,-0.00098816,0.00080526,0.,-0.00677051,-0.00153793,0.,-
 0.00042639,0.00087240,0.,-0.00022979,-0.00052296,0.,0.17958644,-0.1933
 6040,0.,0.02810974,-0.00884932,0.,-0.18268587,0.18591087,0.,0.,-0.0053
 7861,0.,0.,-0.00425678,0.,0.,0.00623135,0.,0.,0.00299795,0.,0.,-0.0006
 2417,0.,0.,-0.01141299,0.,0.,-0.00089993,0.,0.,0.01334317\\0.,0.000000
 13,0.,0.,0.00000005,0.,0.00000021,0.,0.,-0.00000004,-0.00000003,0.,0.0
 0000002,-0.00000006,0.,-0.00000021,0.,0.,-0.00000002,-0.00000006,0.,0.
 00000004,-0.00000003,0.\\\@


 WISDOM IS KNOWING WHAT TO DO,
 SKILL IS KNOWING HOW TO DO IT,
 AND VIRTUE IS NOT DOING IT.
 Job cpu time:  0 days  4 hours  8 minutes 18.6 seconds.
 File lengths (MBytes):  RWF=     54 Int=      0 D2E=      0 Chk=      5 Scr=      1
 Normal termination of Gaussian 09 at Thu Feb 26 00:49:57 2015.
