 Entering Gaussian System, Link 0=g03
 Input=FORMA_PBE1PBE_AUG-cc-pVDZ.com
 Output=FORMA_PBE1PBE_AUG-cc-pVDZ.log
 Initial command:
 /apps/gaussian/g09_c01/g09/l1.exe /tmp/pbs.8910284.cx1b/Gau-23980.inp -scrdir=/tmp/pbs.8910284.cx1b/
 Entering Link 1 = /apps/gaussian/g09_c01/g09/l1.exe PID=     23988.
  
 Copyright (c) 1988,1990,1992,1993,1995,1998,2003,2009,2011,
            Gaussian, Inc.  All Rights Reserved.
  
 This is part of the Gaussian(R) 09 program.  It is based on
 the Gaussian(R) 03 system (copyright 2003, Gaussian, Inc.),
 the Gaussian(R) 98 system (copyright 1998, Gaussian, Inc.),
 the Gaussian(R) 94 system (copyright 1995, Gaussian, Inc.),
 the Gaussian 92(TM) system (copyright 1992, Gaussian, Inc.),
 the Gaussian 90(TM) system (copyright 1990, Gaussian, Inc.),
 the Gaussian 88(TM) system (copyright 1988, Gaussian, Inc.),
 the Gaussian 86(TM) system (copyright 1986, Carnegie Mellon
 University), and the Gaussian 82(TM) system (copyright 1983,
 Carnegie Mellon University). Gaussian is a federally registered
 trademark of Gaussian, Inc.
  
 This software contains proprietary and confidential information,
 including trade secrets, belonging to Gaussian, Inc.
  
 This software is provided under written license and may be
 used, copied, transmitted, or stored only in accord with that
 written license.
  
 The following legend is applicable only to US Government
 contracts under FAR:
  
                    RESTRICTED RIGHTS LEGEND
  
 Use, reproduction and disclosure by the US Government is
 subject to restrictions as set forth in subparagraphs (a)
 and (c) of the Commercial Computer Software - Restricted
 Rights clause in FAR 52.227-19.
  
 Gaussian, Inc.
 340 Quinnipiac St., Bldg. 40, Wallingford CT 06492
  
  
 ---------------------------------------------------------------
 Warning -- This program may not be used in any manner that
 competes with the business of Gaussian, Inc. or will provide
 assistance to any competitor of Gaussian, Inc.  The licensee
 of this program is prohibited from giving any competitor of
 Gaussian, Inc. access to this program.  By using this program,
 the user acknowledges that Gaussian, Inc. is engaged in the
 business of creating and licensing software in the field of
 computational chemistry and represents and warrants to the
 licensee that it is not a competitor of Gaussian, Inc. and that
 it will not use this program in any manner prohibited above.
 ---------------------------------------------------------------
  

 Cite this work as:
 Gaussian 09, Revision C.01,
 M. J. Frisch, G. W. Trucks, H. B. Schlegel, G. E. Scuseria, 
 M. A. Robb, J. R. Cheeseman, G. Scalmani, V. Barone, B. Mennucci, 
 G. A. Petersson, H. Nakatsuji, M. Caricato, X. Li, H. P. Hratchian, 
 A. F. Izmaylov, J. Bloino, G. Zheng, J. L. Sonnenberg, M. Hada, 
 M. Ehara, K. Toyota, R. Fukuda, J. Hasegawa, M. Ishida, T. Nakajima, 
 Y. Honda, O. Kitao, H. Nakai, T. Vreven, J. A. Montgomery, Jr., 
 J. E. Peralta, F. Ogliaro, M. Bearpark, J. J. Heyd, E. Brothers, 
 K. N. Kudin, V. N. Staroverov, T. Keith, R. Kobayashi, J. Normand, 
 K. Raghavachari, A. Rendell, J. C. Burant, S. S. Iyengar, J. Tomasi, 
 M. Cossi, N. Rega, J. M. Millam, M. Klene, J. E. Knox, J. B. Cross, 
 V. Bakken, C. Adamo, J. Jaramillo, R. Gomperts, R. E. Stratmann, 
 O. Yazyev, A. J. Austin, R. Cammi, C. Pomelli, J. W. Ochterski, 
 R. L. Martin, K. Morokuma, V. G. Zakrzewski, G. A. Voth, 
 P. Salvador, J. J. Dannenberg, S. Dapprich, A. D. Daniels, 
 O. Farkas, J. B. Foresman, J. V. Ortiz, J. Cioslowski, 
 and D. J. Fox, Gaussian, Inc., Wallingford CT, 2010.
 
 ******************************************
 Gaussian 09:  EM64L-G09RevC.01 23-Sep-2011
                26-Feb-2015 
 ******************************************
 %Chk=FORMA_PBE1PBE_AUG-cc-pVDZ.chk
 %Mem=8Gb
 %nproc=8
 Will use up to    8 processors via shared memory.
 ----------------------------------------------------------------------
 #p opt(VeryTight,CalcAll,Raman) Integral(Grid=UltraFine) PBE1PBE/AUG-c
 c-pVDZ
 ----------------------------------------------------------------------
 1/7=1,10=4,14=-1,18=20,19=15,26=3,38=1/1,3;
 2/9=110,12=2,17=6,18=5,40=1/2;
 3/5=16,7=10,11=2,16=1,25=1,30=1,71=2,74=-13,75=-5/1,2,3;
 4//1;
 5/5=2,38=5/2;
 8/6=4,10=90,11=11/1;
 10/13=10,15=4/2;
 11/6=3,8=1,9=11,15=111,16=1/1,2,10;
 10/6=1/2;
 6/7=2,8=2,9=2,10=2,18=1,28=1/1;
 7/10=1,25=1/1,2,3,16;
 1/7=1,10=4,14=-1,18=20,19=15/3(3);
 2/9=110/2;
 7/8=1,9=1,25=1,44=-1/16;
 99//99;
 2/9=110/2;
 3/5=16,7=10,11=2,16=1,25=1,30=1,71=2,74=-13,75=-5/1,2,3;
 4/5=5,16=3/1;
 5/5=2,38=5/2;
 8/6=4,10=90,11=11/1;
 10/13=10,15=4/2;
 11/6=3,8=1,9=11,15=111,16=1/1,2,10;
 10/6=1/2;
 7/10=1,25=1/1,2,3,16;
 1/7=1,10=4,14=-1,18=20,19=15/3(-9);
 2/9=110/2;
 6/7=2,8=2,9=2,10=2,18=1,19=2,28=1/1;
 7/8=1,9=1,25=1,44=-1/16;
 99//99;
 Leave Link    1 at Thu Feb 26 00:28:08 2015, MaxMem= 1073741824 cpu:       0.3
 (Enter /apps/gaussian/g09_c01/g09/l101.exe)
 ----------------------------------------------
 Autjob by noodles.sh | Great noodly basis sets
 ----------------------------------------------
 Charge =  1 Multiplicity = 1
 Symbolic Z-Matrix:
 C                     0.        0.42727   0. 
 H                     0.        1.51386   0. 
 N                     1.16818  -0.17499   0. 
 H                     2.0221    0.37151   0. 
 H                     1.27341  -1.18533   0. 
 N                    -1.16818  -0.17499   0. 
 H                    -1.27341  -1.18533   0. 
 H                    -2.0221    0.37151   0. 
 
 NAtoms=      8 NQM=        0 NQMF=       0 NMMI=      8 NMMIF=      0
                NMic=       0 NMicF=      0.
                    Isotopes and Nuclear Properties:
 (Nuclear quadrupole moments (NQMom) in fm**2, nuclear magnetic moments (NMagM)
  in nuclear magnetons)

  Atom         1           2           3           4           5           6           7           8
 IAtWgt=          12           1          14           1           1          14           1           1
 AtmWgt=  12.0000000   1.0078250  14.0030740   1.0078250   1.0078250  14.0030740   1.0078250   1.0078250
 NucSpn=           0           1           2           1           1           2           1           1
 AtZEff=   0.0000000   0.0000000   0.0000000   0.0000000   0.0000000   0.0000000   0.0000000   0.0000000
 NQMom=    0.0000000   0.0000000   2.0440000   0.0000000   0.0000000   2.0440000   0.0000000   0.0000000
 NMagM=    0.0000000   2.7928460   0.4037610   2.7928460   2.7928460   0.4037610   2.7928460   2.7928460
 Leave Link  101 at Thu Feb 26 00:28:09 2015, MaxMem= 1073741824 cpu:       0.9
 (Enter /apps/gaussian/g09_c01/g09/l103.exe)

 GradGradGradGradGradGradGradGradGradGradGradGradGradGradGradGradGradGrad
 Berny optimization.
 Initialization pass.
                           ----------------------------
                           !    Initial Parameters    !
                           ! (Angstroms and Degrees)  !
 --------------------------                            --------------------------
 ! Name  Definition              Value          Derivative Info.                !
 --------------------------------------------------------------------------------
 ! R1    R(1,2)                  1.0866         calculate D2E/DX2 analytically  !
 ! R2    R(1,3)                  1.3143         calculate D2E/DX2 analytically  !
 ! R3    R(1,6)                  1.3143         calculate D2E/DX2 analytically  !
 ! R4    R(3,4)                  1.0138         calculate D2E/DX2 analytically  !
 ! R5    R(3,5)                  1.0158         calculate D2E/DX2 analytically  !
 ! R6    R(6,7)                  1.0158         calculate D2E/DX2 analytically  !
 ! R7    R(6,8)                  1.0138         calculate D2E/DX2 analytically  !
 ! A1    A(2,1,3)              117.2736         calculate D2E/DX2 analytically  !
 ! A2    A(2,1,6)              117.2736         calculate D2E/DX2 analytically  !
 ! A3    A(3,1,6)              125.4529         calculate D2E/DX2 analytically  !
 ! A4    A(1,3,4)              120.1077         calculate D2E/DX2 analytically  !
 ! A5    A(1,3,5)              123.2199         calculate D2E/DX2 analytically  !
 ! A6    A(4,3,5)              116.6724         calculate D2E/DX2 analytically  !
 ! A7    A(1,6,7)              123.2199         calculate D2E/DX2 analytically  !
 ! A8    A(1,6,8)              120.1077         calculate D2E/DX2 analytically  !
 ! A9    A(7,6,8)              116.6724         calculate D2E/DX2 analytically  !
 ! D1    D(2,1,3,4)              0.0            calculate D2E/DX2 analytically  !
 ! D2    D(2,1,3,5)            180.0            calculate D2E/DX2 analytically  !
 ! D3    D(6,1,3,4)            180.0            calculate D2E/DX2 analytically  !
 ! D4    D(6,1,3,5)              0.0            calculate D2E/DX2 analytically  !
 ! D5    D(2,1,6,7)            180.0            calculate D2E/DX2 analytically  !
 ! D6    D(2,1,6,8)              0.0            calculate D2E/DX2 analytically  !
 ! D7    D(3,1,6,7)              0.0            calculate D2E/DX2 analytically  !
 ! D8    D(3,1,6,8)            180.0            calculate D2E/DX2 analytically  !
 --------------------------------------------------------------------------------
 Trust Radius=3.00D-01 FncErr=1.00D-07 GrdErr=1.00D-06
 Number of steps in this run=     34 maximum allowed number of steps=    100.
 GradGradGradGradGradGradGradGradGradGradGradGradGradGradGradGradGradGrad

 Leave Link  103 at Thu Feb 26 00:28:09 2015, MaxMem= 1073741824 cpu:       0.0
 (Enter /apps/gaussian/g09_c01/g09/l202.exe)
                          Input orientation:                          
 ---------------------------------------------------------------------
 Center     Atomic      Atomic             Coordinates (Angstroms)
 Number     Number       Type             X           Y           Z
 ---------------------------------------------------------------------
      1          6           0        0.000000    0.427270    0.000000
      2          1           0        0.000000    1.513864    0.000000
      3          7           0        1.168180   -0.174990    0.000000
      4          1           0        2.022103    0.371511    0.000000
      5          1           0        1.273414   -1.185325    0.000000
      6          7           0       -1.168180   -0.174990    0.000000
      7          1           0       -1.273414   -1.185325    0.000000
      8          1           0       -2.022103    0.371511    0.000000
 ---------------------------------------------------------------------
                    Distance matrix (angstroms):
                    1          2          3          4          5
     1  C    0.000000
     2  H    1.086594   0.000000
     3  N    1.314291   2.053502   0.000000
     4  H    2.022872   2.322471   1.013828   0.000000
     5  H    2.054762   2.984494   1.015801   1.727505   0.000000
     6  N    1.314291   2.053502   2.336360   3.236753   2.642377
     7  H    2.054762   2.984494   2.642377   3.644746   2.546828
     8  H    2.022872   2.322471   3.236753   4.044206   3.644746
                    6          7          8
     6  N    0.000000
     7  H    1.015801   0.000000
     8  H    1.013828   1.727505   0.000000
 Stoichiometry    CH5N2(1+)
 Framework group  C2V[C2(CH),SGV(H4N2)]
 Deg. of freedom     7
 Full point group                 C2V     NOp   4
 Largest Abelian subgroup         C2V     NOp   4
 Largest concise Abelian subgroup C2      NOp   2
                         Standard orientation:                         
 ---------------------------------------------------------------------
 Center     Atomic      Atomic             Coordinates (Angstroms)
 Number     Number       Type             X           Y           Z
 ---------------------------------------------------------------------
      1          6           0        0.000000    0.000000    0.427270
      2          1           0        0.000000    0.000000    1.513864
      3          7           0        0.000000    1.168180   -0.174990
      4          1           0        0.000000    2.022103    0.371511
      5          1           0        0.000000    1.273414   -1.185325
      6          7           0        0.000000   -1.168180   -0.174990
      7          1           0        0.000000   -1.273414   -1.185325
      8          1           0        0.000000   -2.022103    0.371511
 ---------------------------------------------------------------------
 Rotational constants (GHZ):     59.6815563     10.1627081      8.6839806
 Leave Link  202 at Thu Feb 26 00:28:09 2015, MaxMem= 1073741824 cpu:       0.0
 (Enter /apps/gaussian/g09_c01/g09/l301.exe)
 Standard basis: Aug-CC-pVDZ (5D, 7F)
 Ernie: Thresh=  0.10000D-02 Tol=  0.10000D-05 Strict=F.
 Ernie:  6 primitive shells out of 110 were deleted.
 There are    46 symmetry adapted basis functions of A1  symmetry.
 There are    13 symmetry adapted basis functions of A2  symmetry.
 There are    18 symmetry adapted basis functions of B1  symmetry.
 There are    37 symmetry adapted basis functions of B2  symmetry.
 Integral buffers will be    131072 words long.
 Raffenetti 2 integral format.
 Two-electron integral symmetry is turned on.
   114 basis functions,   184 primitive gaussians,   120 cartesian basis functions
    12 alpha electrons       12 beta electrons
       nuclear repulsion energy        79.4241064683 Hartrees.
 IExCor= 1009 DFT=T Ex+Corr=PBE1PBE ExCW=0 ScaHFX=  0.250000
 ScaDFX=  0.750000  0.750000  1.000000  1.000000 ScalE2=  1.000000  1.000000
 IRadAn=      5 IRanWt=     -1 IRanGd=            0 ICorTp=0
 NAtoms=    8 NActive=    8 NUniq=    5 SFac= 2.56D+00 NAtFMM=   60 NAOKFM=F Big=F
 Leave Link  301 at Thu Feb 26 00:28:09 2015, MaxMem= 1073741824 cpu:       0.3
 (Enter /apps/gaussian/g09_c01/g09/l302.exe)
 NPDir=0 NMtPBC=     1 NCelOv=     1 NCel=       1 NClECP=     1 NCelD=      1
         NCelK=      1 NCelE2=     1 NClLst=     1 CellRange=     0.0.
 One-electron integrals computed using PRISM.
 One-electron integral symmetry used in STVInt
 NBasis=   114 RedAO= T  NBF=    46    13    18    37
 NBsUse=   114 1.00D-06 NBFU=    46    13    18    37
 Precomputing XC quadrature grid using
 IXCGrd= 2 IRadAn=           5 IRanWt=          -1 IRanGd=           0 AccXCQ= 0.00D+00.
 NRdTot=     686 NPtTot=      183350 NUsed=      188269 NTot=      188301
 NSgBfM=   120   120   120   120   120 NAtAll=     8     8.
 Leave Link  302 at Thu Feb 26 00:28:09 2015, MaxMem= 1073741824 cpu:       1.2
 (Enter /apps/gaussian/g09_c01/g09/l303.exe)
 DipDrv:  MaxL=1.
 Leave Link  303 at Thu Feb 26 00:28:09 2015, MaxMem= 1073741824 cpu:       0.2
 (Enter /apps/gaussian/g09_c01/g09/l401.exe)
 Harris functional with IExCor= 1009 diagonalized for initial guess.
 ExpMin= 2.97D-02 ExpMax= 9.05D+03 ExpMxC= 3.09D+02 IAcc=3 IRadAn=         5 AccDes= 0.00D+00
 HarFok:  IExCor= 1009 AccDes= 0.00D+00 IRadAn=         5 IDoV= 1
 ScaDFX=  1.000000  1.000000  1.000000  1.000000
 FoFCou: FMM=F IPFlag=           0 FMFlag=      100000 FMFlg1=           0
         NFxFlg=           0 DoJE=T BraDBF=F KetDBF=T FulRan=T
         Omega=  0.000000  0.000000  1.000000  0.000000  0.000000 ICntrl=     500 IOpCl=  0
         NMat0=    1 NMatS0=    1 NMatT0=    0 NMatD0=    1 NMtDS0=    0 NMtDT0=    0
         I1Cent=           4 NGrid=           0.
 Petite list used in FoFCou.
 Harris En= -150.296028623712    
 Initial guess orbital symmetries:
       Occupied  (B2) (A1) (A1) (A1) (B2) (A1) (A1) (B2) (B2) (A1)
                 (B1) (A2)
       Virtual   (B1) (A1) (B2) (A1) (B2) (A1) (B1) (A1) (B2) (A1)
                 (A1) (A2) (B2) (A1) (B1) (B2) (A1) (B2) (A1) (A1)
                 (B1) (B2) (B2) (A1) (A2) (B1) (A1) (B2) (B2) (A1)
                 (A2) (B1) (A1) (A1) (A1) (B2) (A1) (A2) (B1) (B2)
                 (A1) (B2) (B2) (A1) (B1) (B2) (A1) (B2) (A2) (B2)
                 (A1) (B1) (A1) (A2) (B2) (B1) (A1) (A1) (B2) (A2)
                 (A1) (B1) (B2) (A1) (B1) (B2) (A1) (A2) (B2) (A1)
                 (B1) (A2) (B1) (A1) (B2) (B2) (A2) (A1) (A1) (B1)
                 (B2) (A1) (B2) (A1) (B2) (B2) (A1) (A1) (B1) (A2)
                 (B2) (B1) (A2) (A1) (B2) (A1) (B2) (A1) (B2) (A1)
                 (B2) (A1)
 The electronic state of the initial guess is 1-A1.
 Leave Link  401 at Thu Feb 26 00:28:09 2015, MaxMem= 1073741824 cpu:       1.8
 (Enter /apps/gaussian/g09_c01/g09/l502.exe)
 Closed shell SCF:
 Requested convergence on RMS density matrix=1.00D-08 within 128 cycles.
 Requested convergence on MAX density matrix=1.00D-06.
 Requested convergence on             energy=1.00D-06.
 No special actions if energy rises.
 Using DIIS extrapolation, IDIIS=  1040.
 Integral symmetry usage will be decided dynamically.
       188184 words used for storage of precomputed grid.
 Keep R1 ints in memory in canonical form, NReq=27554120.
 IEnd=      251662 IEndB=      251662 NGot=  1073741824 MDV=  1047163865
 LenX=  1047163865 LenY=  1047149024
 Symmetry not used in FoFDir.
 MinBra= 0 MaxBra= 2 Meth= 1.
 IRaf=       0 NMat=   1 IRICut=       1 DoRegI=T DoRafI=F ISym2E= 0 JSym2E=0.

 Cycle   1  Pass 1  IDiag  1:
 E= -150.198792106282    
 DIIS: error= 2.15D-02 at cycle   1 NSaved=   1.
 NSaved= 1 IEnMin= 1 EnMin= -150.198792106282     IErMin= 1 ErrMin= 2.15D-02
 ErrMax= 2.15D-02 EMaxC= 1.00D-01 BMatC= 4.82D-02 BMatP= 4.82D-02
 IDIUse=3 WtCom= 7.85D-01 WtEn= 2.15D-01
 Coeff-Com:  0.100D+01
 Coeff-En:   0.100D+01
 Coeff:      0.100D+01
 Gap=     0.258 Goal=   None    Shift=    0.000
 GapD=    0.258 DampG=1.000 DampE=0.500 DampFc=0.5000 IDamp=-1.
 Damping current iteration by 5.00D-01
 RMSDP=3.77D-03 MaxDP=9.91D-02              OVMax= 9.54D-02

 Cycle   2  Pass 1  IDiag  1:
 E= -150.214023134451     Delta-E=       -0.015231028169 Rises=F Damp=T
 DIIS: error= 4.13D-03 at cycle   2 NSaved=   2.
 NSaved= 2 IEnMin= 2 EnMin= -150.214023134451     IErMin= 2 ErrMin= 4.13D-03
 ErrMax= 4.13D-03 EMaxC= 1.00D-01 BMatC= 2.38D-03 BMatP= 4.82D-02
 IDIUse=3 WtCom= 9.59D-01 WtEn= 4.13D-02
 Coeff-Com:  0.428D-01 0.957D+00
 Coeff-En:   0.132D+00 0.868D+00
 Coeff:      0.465D-01 0.954D+00
 Gap=     0.299 Goal=   None    Shift=    0.000
 RMSDP=1.97D-03 MaxDP=6.60D-02 DE=-1.52D-02 OVMax= 7.43D-02

 Cycle   3  Pass 1  IDiag  1:
 E= -150.232982233551     Delta-E=       -0.018959099100 Rises=F Damp=F
 DIIS: error= 2.56D-03 at cycle   3 NSaved=   3.
 NSaved= 3 IEnMin= 3 EnMin= -150.232982233551     IErMin= 3 ErrMin= 2.56D-03
 ErrMax= 2.56D-03 EMaxC= 1.00D-01 BMatC= 7.96D-04 BMatP= 2.38D-03
 IDIUse=3 WtCom= 9.74D-01 WtEn= 2.56D-02
 Coeff-Com: -0.524D-01 0.305D+00 0.748D+00
 Coeff-En:   0.000D+00 0.000D+00 0.100D+01
 Coeff:     -0.510D-01 0.297D+00 0.754D+00
 Gap=     0.293 Goal=   None    Shift=    0.000
 RMSDP=2.84D-04 MaxDP=8.88D-03 DE=-1.90D-02 OVMax= 1.54D-02

 Cycle   4  Pass 1  IDiag  1:
 E= -150.233562529773     Delta-E=       -0.000580296222 Rises=F Damp=F
 DIIS: error= 1.25D-03 at cycle   4 NSaved=   4.
 NSaved= 4 IEnMin= 4 EnMin= -150.233562529773     IErMin= 4 ErrMin= 1.25D-03
 ErrMax= 1.25D-03 EMaxC= 1.00D-01 BMatC= 1.34D-04 BMatP= 7.96D-04
 IDIUse=3 WtCom= 9.87D-01 WtEn= 1.25D-02
 Coeff-Com: -0.285D-01 0.583D-01 0.361D+00 0.609D+00
 Coeff-En:   0.000D+00 0.000D+00 0.978D-01 0.902D+00
 Coeff:     -0.281D-01 0.576D-01 0.358D+00 0.613D+00
 Gap=     0.294 Goal=   None    Shift=    0.000
 RMSDP=9.12D-05 MaxDP=2.96D-03 DE=-5.80D-04 OVMax= 4.81D-03

 Cycle   5  Pass 1  IDiag  1:
 E= -150.233695994255     Delta-E=       -0.000133464482 Rises=F Damp=F
 DIIS: error= 1.53D-04 at cycle   5 NSaved=   5.
 NSaved= 5 IEnMin= 5 EnMin= -150.233695994255     IErMin= 5 ErrMin= 1.53D-04
 ErrMax= 1.53D-04 EMaxC= 1.00D-01 BMatC= 2.17D-06 BMatP= 1.34D-04
 IDIUse=3 WtCom= 9.98D-01 WtEn= 1.53D-03
 Coeff-Com: -0.848D-02 0.120D-01 0.106D+00 0.225D+00 0.666D+00
 Coeff-En:   0.000D+00 0.000D+00 0.000D+00 0.000D+00 0.100D+01
 Coeff:     -0.846D-02 0.120D-01 0.105D+00 0.224D+00 0.667D+00
 Gap=     0.294 Goal=   None    Shift=    0.000
 RMSDP=1.05D-05 MaxDP=2.72D-04 DE=-1.33D-04 OVMax= 3.53D-04

 Cycle   6  Pass 1  IDiag  1:
 E= -150.233697992732     Delta-E=       -0.000001998477 Rises=F Damp=F
 DIIS: error= 1.28D-05 at cycle   6 NSaved=   6.
 NSaved= 6 IEnMin= 6 EnMin= -150.233697992732     IErMin= 6 ErrMin= 1.28D-05
 ErrMax= 1.28D-05 EMaxC= 1.00D-01 BMatC= 1.80D-08 BMatP= 2.17D-06
 IDIUse=1 WtCom= 1.00D+00 WtEn= 0.00D+00
 Coeff-Com: -0.911D-03 0.857D-03 0.109D-01 0.317D-01 0.122D+00 0.836D+00
 Coeff:     -0.911D-03 0.857D-03 0.109D-01 0.317D-01 0.122D+00 0.836D+00
 Gap=     0.294 Goal=   None    Shift=    0.000
 RMSDP=1.39D-06 MaxDP=2.19D-05 DE=-2.00D-06 OVMax= 3.54D-05

 Cycle   7  Pass 1  IDiag  1:
 E= -150.233698009803     Delta-E=       -0.000000017071 Rises=F Damp=F
 DIIS: error= 2.55D-06 at cycle   7 NSaved=   7.
 NSaved= 7 IEnMin= 7 EnMin= -150.233698009803     IErMin= 7 ErrMin= 2.55D-06
 ErrMax= 2.55D-06 EMaxC= 1.00D-01 BMatC= 7.31D-10 BMatP= 1.80D-08
 IDIUse=1 WtCom= 1.00D+00 WtEn= 0.00D+00
 Coeff-Com:  0.157D-03-0.238D-03-0.240D-02-0.293D-02-0.130D-01 0.582D-01
 Coeff-Com:  0.960D+00
 Coeff:      0.157D-03-0.238D-03-0.240D-02-0.293D-02-0.130D-01 0.582D-01
 Coeff:      0.960D+00
 Gap=     0.294 Goal=   None    Shift=    0.000
 RMSDP=3.26D-07 MaxDP=8.02D-06 DE=-1.71D-08 OVMax= 6.01D-06

 Cycle   8  Pass 1  IDiag  1:
 E= -150.233698010489     Delta-E=       -0.000000000686 Rises=F Damp=F
 DIIS: error= 2.32D-07 at cycle   8 NSaved=   8.
 NSaved= 8 IEnMin= 8 EnMin= -150.233698010489     IErMin= 8 ErrMin= 2.32D-07
 ErrMax= 2.32D-07 EMaxC= 1.00D-01 BMatC= 9.24D-12 BMatP= 7.31D-10
 IDIUse=1 WtCom= 1.00D+00 WtEn= 0.00D+00
 Coeff-Com:  0.106D-04-0.817D-05-0.274D-03-0.445D-03-0.179D-02-0.535D-02
 Coeff-Com:  0.465D-01 0.961D+00
 Coeff:      0.106D-04-0.817D-05-0.274D-03-0.445D-03-0.179D-02-0.535D-02
 Coeff:      0.465D-01 0.961D+00
 Gap=     0.294 Goal=   None    Shift=    0.000
 RMSDP=2.57D-08 MaxDP=6.42D-07 DE=-6.86D-10 OVMax= 7.32D-07

 Cycle   9  Pass 1  IDiag  1:
 E= -150.233698010496     Delta-E=       -0.000000000007 Rises=F Damp=F
 DIIS: error= 3.06D-08 at cycle   9 NSaved=   9.
 NSaved= 9 IEnMin= 9 EnMin= -150.233698010496     IErMin= 9 ErrMin= 3.06D-08
 ErrMax= 3.06D-08 EMaxC= 1.00D-01 BMatC= 7.67D-14 BMatP= 9.24D-12
 IDIUse=1 WtCom= 1.00D+00 WtEn= 0.00D+00
 Coeff-Com: -0.218D-05 0.413D-05 0.123D-04 0.814D-05 0.557D-04-0.134D-02
 Coeff-Com: -0.129D-01 0.935D-01 0.921D+00
 Coeff:     -0.218D-05 0.413D-05 0.123D-04 0.814D-05 0.557D-04-0.134D-02
 Coeff:     -0.129D-01 0.935D-01 0.921D+00
 Gap=     0.294 Goal=   None    Shift=    0.000
 RMSDP=3.33D-09 MaxDP=8.28D-08 DE=-6.85D-12 OVMax= 9.95D-08

 SCF Done:  E(RPBE1PBE) =  -150.233698010     A.U. after    9 cycles
             Convg  =    0.3328D-08             -V/T =  2.0064
 KE= 1.492798377283D+02 PE=-5.024179032417D+02 EE= 1.234802610345D+02
 Leave Link  502 at Thu Feb 26 00:28:11 2015, MaxMem= 1073741824 cpu:      15.3
 (Enter /apps/gaussian/g09_c01/g09/l801.exe)
 Range of M.O.s used for correlation:     1   114
 NBasis=   114 NAE=    12 NBE=    12 NFC=     0 NFV=     0
 NROrb=    114 NOA=    12 NOB=    12 NVA=   102 NVB=   102

 **** Warning!!: The largest alpha MO coefficient is  0.23214503D+02

 Leave Link  801 at Thu Feb 26 00:28:11 2015, MaxMem= 1073741824 cpu:       0.1
 (Enter /apps/gaussian/g09_c01/g09/l1002.exe)
 Minotr:  Closed shell wavefunction.
          Direct CPHF calculation.
          Differentiating once with respect to electric field.
                with respect to dipole field.
          Electric field/nuclear overlap derivatives assumed to be zero.
          Using symmetry in CPHF.
          Requested convergence is 1.0D-08 RMS, and 1.0D-07 maximum.
          Secondary convergence is 1.0D-12 RMS, and 1.0D-12 maximum.
          NewPWx=F KeepS1=T KeepF1=T KeepIn=T MapXYZ=F SortEE=F KeepMc=T.
          MDV=    1073741756 using IRadAn=       1.
 Generate precomputed XC quadrature information.
          Keep R1 ints in memory in canonical form, NReq=27181278.
 Symmetry not used in FoFDir.
 MinBra= 0 MaxBra= 2 Meth= 1.
 IRaf=       0 NMat=   1 IRICut=       1 DoRegI=T DoRafI=F ISym2E= 0 JSym2E=0.
          Solving linear equations simultaneously, MaxMat=       0.
          There are     3 degrees of freedom in the 1st order CPHF.  IDoFFX=0.
      3 vectors produced by pass  0 Test12= 4.08D-14 3.33D-08 XBig12= 3.11D+01 4.70D+00.
 AX will form     3 AO Fock derivatives at one time.
      3 vectors produced by pass  1 Test12= 4.08D-14 3.33D-08 XBig12= 8.52D+00 8.83D-01.
      3 vectors produced by pass  2 Test12= 4.08D-14 3.33D-08 XBig12= 8.67D-01 2.94D-01.
      3 vectors produced by pass  3 Test12= 4.08D-14 3.33D-08 XBig12= 1.86D-02 3.32D-02.
      3 vectors produced by pass  4 Test12= 4.08D-14 3.33D-08 XBig12= 1.02D-03 7.14D-03.
      3 vectors produced by pass  5 Test12= 4.08D-14 3.33D-08 XBig12= 1.60D-04 3.11D-03.
      3 vectors produced by pass  6 Test12= 4.08D-14 3.33D-08 XBig12= 3.85D-06 4.68D-04.
      3 vectors produced by pass  7 Test12= 4.08D-14 3.33D-08 XBig12= 6.98D-08 7.78D-05.
      2 vectors produced by pass  8 Test12= 4.08D-14 3.33D-08 XBig12= 4.66D-10 5.84D-06.
      2 vectors produced by pass  9 Test12= 4.08D-14 3.33D-08 XBig12= 9.27D-12 7.83D-07.
      1 vectors produced by pass 10 Test12= 4.08D-14 3.33D-08 XBig12= 3.78D-14 3.63D-08.
 Inverted reduced A of dimension    29 with in-core refinement.
 End of Minotr Frequency-dependent properties file   721 does not exist.
 End of Minotr Frequency-dependent properties file   722 does not exist.
 Leave Link 1002 at Thu Feb 26 00:28:18 2015, MaxMem= 1073741824 cpu:      56.7
 (Enter /apps/gaussian/g09_c01/g09/l1101.exe)
 Using compressed storage, NAtomX=     8.
 Will process   9 centers per pass.
 Leave Link 1101 at Thu Feb 26 00:28:18 2015, MaxMem= 1073741824 cpu:       1.1
 (Enter /apps/gaussian/g09_c01/g09/l1102.exe)
 Symmetrizing basis deriv contribution to polar:
 IMax=3 JMax=2 DiffMx= 0.00D+00
 Leave Link 1102 at Thu Feb 26 00:28:18 2015, MaxMem= 1073741824 cpu:       0.2
 (Enter /apps/gaussian/g09_c01/g09/l1110.exe)
 Forming Gx(P) for the SCF density, NAtomX=     8.
 Integral derivatives from FoFDir/FoFCou, PRISM(SPDF).
 Do as many integral derivatives as possible in FoFDir.
 G2DrvN: MDV=    1073741656.
 G2DrvN: will do     9 centers at a time, making    1 passes doing MaxLOS=2.
 Calling FoFCou, ICntrl=  3107 FMM=F I1Cent=   0 AccDes= 0.00D+00.
 FoFCou: FMM=F IPFlag=           0 FMFlag=      100000 FMFlg1=           0
         NFxFlg=           0 DoJE=F BraDBF=F KetDBF=F FulRan=T
         Omega=  0.000000  0.000000  1.000000  0.000000  0.000000 ICntrl=    3107 IOpCl=  0
         NMat0=    1 NMatS0=    1 NMatT0=    0 NMatD0=    4 NMtDS0=    3 NMtDT0=    0
         I1Cent=           0 NGrid=           0.
 Petite list used in FoFCou.
 FoFDir/FoFCou used for L=0 through L=2.
 End of G2Drv Frequency-dependent properties file   721 does not exist.
 End of G2Drv Frequency-dependent properties file   722 does not exist.
 Leave Link 1110 at Thu Feb 26 00:28:24 2015, MaxMem= 1073741824 cpu:      45.9
 (Enter /apps/gaussian/g09_c01/g09/l1002.exe)
 Minotr:  Closed shell wavefunction.
          IDoAtm=11111111
          Direct CPHF calculation.
          Differentiating once with respect to electric field.
                with respect to dipole field.
          Differentiating once with respect to nuclear coordinates.
          Using symmetry in CPHF.
          Requested convergence is 1.0D-08 RMS, and 1.0D-07 maximum.
          Secondary convergence is 1.0D-12 RMS, and 1.0D-12 maximum.
          NewPWx=T KeepS1=F KeepF1=F KeepIn=T MapXYZ=F SortEE=F KeepMc=T.
          MDV=    1073741740 using IRadAn=       1.
 Generate precomputed XC quadrature information.
          Keep R1 ints in memory in canonical form, NReq=27181446.
 Symmetry not used in FoFDir.
 MinBra= 0 MaxBra= 2 Meth= 1.
 IRaf=       0 NMat=   1 IRICut=       1 DoRegI=T DoRafI=F ISym2E= 0 JSym2E=0.
          Solving linear equations simultaneously, MaxMat=       0.
          There are    18 degrees of freedom in the 1st order CPHF.  IDoFFX=4.
 Will reuse    3 saved solutions.
     15 vectors produced by pass  0 Test12= 6.80D-15 5.56D-09 XBig12= 1.50D-01 1.52D-01.
 AX will form    15 AO Fock derivatives at one time.
     15 vectors produced by pass  1 Test12= 6.80D-15 5.56D-09 XBig12= 1.68D-02 6.75D-02.
     15 vectors produced by pass  2 Test12= 6.80D-15 5.56D-09 XBig12= 3.00D-04 4.98D-03.
     15 vectors produced by pass  3 Test12= 6.80D-15 5.56D-09 XBig12= 2.58D-06 4.14D-04.
     15 vectors produced by pass  4 Test12= 6.80D-15 5.56D-09 XBig12= 5.35D-09 1.32D-05.
     14 vectors produced by pass  5 Test12= 6.80D-15 5.56D-09 XBig12= 1.17D-11 8.20D-07.
      4 vectors produced by pass  6 Test12= 6.80D-15 5.56D-09 XBig12= 1.51D-14 3.04D-08.
 Inverted reduced A of dimension    93 with in-core refinement.
 FullF1:  Do perturbations    1 to    18.
 Isotropic polarizability for W=    0.000000       26.83 Bohr**3.
 FullF1:  Do perturbations    1 to     6.
 End of Minotr Frequency-dependent properties file   721 does not exist.
 End of Minotr Frequency-dependent properties file   722 does not exist.
 Leave Link 1002 at Thu Feb 26 00:28:36 2015, MaxMem= 1073741824 cpu:      92.2
 (Enter /apps/gaussian/g09_c01/g09/l601.exe)
 Copying SCF densities to generalized density rwf, IOpCl= 0 IROHF=0.

 **********************************************************************

            Population analysis using the SCF density.

 **********************************************************************

 Orbital symmetries:
       Occupied  (B2) (A1) (A1) (A1) (B2) (A1) (A1) (B2) (B2) (A1)
                 (B1) (A2)
       Virtual   (B1) (A1) (A1) (B2) (A1) (B1) (B2) (A1) (B2) (A1)
                 (A2) (A1) (B1) (B2) (A1) (B2) (A1) (B2) (A1) (B1)
                 (A1) (B2) (B2) (A2) (A1) (B1) (A1) (B2) (B2) (A1)
                 (A2) (B1) (A1) (A1) (A1) (B2) (A2) (A1) (B1) (B2)
                 (A1) (B2) (B2) (A1) (B1) (B2) (A1) (B2) (A2) (B2)
                 (B1) (A1) (A1) (A2) (B2) (B1) (A1) (A1) (B2) (A2)
                 (A1) (B1) (B2) (A1) (B1) (B2) (A1) (A2) (B2) (A1)
                 (B1) (A2) (B1) (A1) (B2) (A2) (B2) (A1) (A1) (B1)
                 (A1) (B2) (B2) (A1) (B2) (B2) (A1) (A1) (B1) (A2)
                 (B2) (B1) (A1) (A2) (B2) (A1) (B2) (A1) (B2) (A1)
                 (B2) (A1)
 The electronic state is 1-A1.
 Alpha  occ. eigenvalues --  -14.66918 -14.66917 -10.57827  -1.24875  -1.16102
 Alpha  occ. eigenvalues --   -0.91630  -0.83368  -0.80884  -0.73994  -0.67794
 Alpha  occ. eigenvalues --   -0.65555  -0.52642
 Alpha virt. eigenvalues --   -0.23192  -0.17163  -0.14611  -0.14263  -0.09246
 Alpha virt. eigenvalues --   -0.09212  -0.09097  -0.06997  -0.05507  -0.04685
 Alpha virt. eigenvalues --   -0.03164  -0.02719  -0.01469  -0.00701  -0.00597
 Alpha virt. eigenvalues --    0.00928   0.01009   0.03900   0.04649   0.06548
 Alpha virt. eigenvalues --    0.07951   0.08586   0.10488   0.10978   0.11448
 Alpha virt. eigenvalues --    0.14747   0.17846   0.20844   0.21463   0.22373
 Alpha virt. eigenvalues --    0.23314   0.23984   0.26209   0.28451   0.29533
 Alpha virt. eigenvalues --    0.31348   0.31848   0.31960   0.32027   0.34476
 Alpha virt. eigenvalues --    0.36008   0.36640   0.37926   0.42333   0.43416
 Alpha virt. eigenvalues --    0.48019   0.49942   0.53663   0.58851   0.59286
 Alpha virt. eigenvalues --    0.59580   0.59744   0.61180   0.63431   0.64267
 Alpha virt. eigenvalues --    0.66459   0.74754   0.90011   0.91663   0.98434
 Alpha virt. eigenvalues --    1.02966   1.06472   1.07823   1.08785   1.14934
 Alpha virt. eigenvalues --    1.17338   1.29143   1.32336   1.42623   1.43237
 Alpha virt. eigenvalues --    1.51539   1.52459   1.54499   1.55886   1.61465
 Alpha virt. eigenvalues --    1.72174   1.74588   1.77019   1.79026   1.81385
 Alpha virt. eigenvalues --    1.84870   1.85097   1.87115   1.90219   1.94840
 Alpha virt. eigenvalues --    2.03650   2.06063   2.08479   2.16821   2.18672
 Alpha virt. eigenvalues --    2.23765   2.29876   2.36830   2.38245   2.43917
 Alpha virt. eigenvalues --    2.59368   2.71223   2.79097   2.80692   3.04188
 Alpha virt. eigenvalues --    3.05901   3.34683
          Condensed to atoms (all electrons):
              1          2          3          4          5          6
     1  C    4.698294   0.174796   0.291892  -0.167712  -0.140893   0.291892
     2  H    0.174796   1.179221  -0.102922  -0.022927   0.038660  -0.102922
     3  N    0.291892  -0.102922   6.069023   0.427585   0.425145  -0.072704
     4  H   -0.167712  -0.022927   0.427585   0.849239  -0.178662   0.022429
     5  H   -0.140893   0.038660   0.425145  -0.178662   0.896362  -0.020875
     6  N    0.291892  -0.102922  -0.072704   0.022429  -0.020875   6.069023
     7  H   -0.140893   0.038660  -0.020875  -0.003647   0.009610   0.425145
     8  H   -0.167712  -0.022927   0.022429  -0.001231  -0.003647   0.427585
              7          8
     1  C   -0.140893  -0.167712
     2  H    0.038660  -0.022927
     3  N   -0.020875   0.022429
     4  H   -0.003647  -0.001231
     5  H    0.009610  -0.003647
     6  N    0.425145   0.427585
     7  H    0.896362  -0.178662
     8  H   -0.178662   0.849239
 Mulliken atomic charges:
              1
     1  C    1.160337
     2  H   -0.179641
     3  N   -0.039574
     4  H    0.074926
     5  H   -0.025701
     6  N   -0.039574
     7  H   -0.025701
     8  H    0.074926
 Sum of Mulliken atomic charges =   1.00000
 Mulliken charges with hydrogens summed into heavy atoms:
              1
     1  C    0.980696
     3  N    0.009652
     6  N    0.009652
 Sum of Mulliken charges with hydrogens summed into heavy atoms =   1.00000
 APT atomic charges:
              1
     1  C    0.863972
     2  H    0.132292
     3  N   -0.585356
     4  H    0.312207
     5  H    0.275017
     6  N   -0.585356
     7  H    0.275017
     8  H    0.312207
 Sum of APT charges=   1.00000
 APT Atomic charges with hydrogens summed into heavy atoms:
              1
     1  C    0.996263
     2  H    0.000000
     3  N    0.001868
     4  H    0.000000
     5  H    0.000000
     6  N    0.001868
     7  H    0.000000
     8  H    0.000000
 Sum of APT charges=   1.00000
 Electronic spatial extent (au):  <R**2>=            158.7748
 Charge=              1.0000 electrons
 Dipole moment (field-independent basis, Debye):
    X=              0.0000    Y=              0.0000    Z=             -0.2146  Tot=              0.2146
 Quadrupole moment (field-independent basis, Debye-Ang):
   XX=            -19.2341   YY=             -4.3082   ZZ=            -10.2415
   XY=              0.0000   XZ=              0.0000   YZ=              0.0000
 Traceless Quadrupole moment (field-independent basis, Debye-Ang):
   XX=             -7.9728   YY=              6.9530   ZZ=              1.0198
   XY=              0.0000   XZ=              0.0000   YZ=              0.0000
 Octapole moment (field-independent basis, Debye-Ang**2):
  XXX=              0.0000  YYY=              0.0000  ZZZ=             -3.1961  XYY=              0.0000
  XXY=              0.0000  XXZ=             -0.0363  XZZ=              0.0000  YZZ=              0.0000
  YYZ=             -0.1093  XYZ=              0.0000
 Hexadecapole moment (field-independent basis, Debye-Ang**3):
 XXXX=            -17.8620 YYYY=            -70.7345 ZZZZ=            -23.1756 XXXY=              0.0000
 XXXZ=              0.0000 YYYX=              0.0000 YYYZ=              0.0000 ZZZX=              0.0000
 ZZZY=              0.0000 XXYY=            -27.7595 XXZZ=             -9.5720 YYZZ=            -17.9255
 XXYZ=              0.0000 YYXZ=              0.0000 ZZXY=              0.0000
 N-N= 7.942410646830D+01 E-N=-5.024179025548D+02  KE= 1.492798377283D+02
 Symmetry A1   KE= 8.854205048405D+01
 Symmetry A2   KE= 3.473518656229D+00
 Symmetry B1   KE= 2.716150529579D+00
 Symmetry B2   KE= 5.454811805849D+01
  Exact polarizability:  18.279   0.000  37.379   0.000   0.000  24.830
 Approx polarizability:  23.439   0.000  51.851   0.000   0.000  33.148
 No NMR shielding tensors so no spin-rotation constants.
 Leave Link  601 at Thu Feb 26 00:28:36 2015, MaxMem= 1073741824 cpu:       1.1
 (Enter /apps/gaussian/g09_c01/g09/l701.exe)
 Compute integral second derivatives.
 ... and contract with generalized density number  0.
 Leave Link  701 at Thu Feb 26 00:28:36 2015, MaxMem= 1073741824 cpu:       1.4
 (Enter /apps/gaussian/g09_c01/g09/l702.exe)
 L702 exits ... SP integral derivatives will be done elsewhere.
 Leave Link  702 at Thu Feb 26 00:28:36 2015, MaxMem= 1073741824 cpu:       0.1
 (Enter /apps/gaussian/g09_c01/g09/l703.exe)
 Compute integral second derivatives, UseDBF=F ICtDFT=           0.
 Integral derivatives from FoFDir, PRISM(SPDF).
 Calling FoFJK, ICntrl=    100127 FMM=F ISym2X=1 I1Cent= 0 IOpClX= 0 NMat=1 NMatS=1 NMatT=0.
 FoFCou: FMM=F IPFlag=           0 FMFlag=      100000 FMFlg1=         800
         NFxFlg=           0 DoJE=F BraDBF=F KetDBF=F FulRan=T
         Omega=  0.000000  0.000000  1.000000  0.000000  0.000000 ICntrl=  100127 IOpCl=  0
         NMat0=    1 NMatS0=    1 NMatT0=    0 NMatD0=    1 NMtDS0=    0 NMtDT0=    0
         I1Cent=           0 NGrid=           0.
 Petite list used in FoFCou.
 Leave Link  703 at Thu Feb 26 00:28:41 2015, MaxMem= 1073741824 cpu:      38.3
 (Enter /apps/gaussian/g09_c01/g09/l716.exe)
 Dipole        =-4.20262213D-17 1.67539593D-14-8.44247377D-02
 Polarizability= 1.82792411D+01 7.40035417D-12 3.73789397D+01
                 1.46922598D-11 2.25004911D-13 2.48299295D+01
 HyperPolar    =-5.13712509D-10 1.90478928D-10-7.52299847D-11
                 1.26275465D-10-1.58858129D-01 2.48530494D-11
                 3.10534985D+01 5.83072220D-11 5.20483373D-11
                -6.02738111D+00
 ***** Axes restored to original set *****
 -------------------------------------------------------------------
 Center     Atomic                   Forces (Hartrees/Bohr)
 Number     Number              X              Y              Z
 -------------------------------------------------------------------
      1        6           0.000000000   -0.006736318    0.000000000
      2        1           0.000000000    0.003240486    0.000000000
      3        7          -0.002423053    0.000091103    0.000000000
      4        1          -0.002134814   -0.000144659    0.000000000
      5        1          -0.001045058    0.001801472    0.000000000
      6        7           0.002423053    0.000091103    0.000000000
      7        1           0.001045058    0.001801472    0.000000000
      8        1           0.002134814   -0.000144659    0.000000000
 -------------------------------------------------------------------
 Cartesian Forces:  Max     0.006736318 RMS     0.001887120
 Force constants in Cartesian coordinates: 
                1             2             3             4             5 
      1  0.946320D+00
      2  0.000000D+00  0.852030D+00
      3  0.000000D+00  0.000000D+00  0.169016D+00
      4 -0.609077D-01  0.000000D+00  0.000000D+00  0.681131D-01
      5  0.000000D+00 -0.362747D+00  0.000000D+00  0.000000D+00  0.376542D+00
      6  0.000000D+00  0.000000D+00 -0.530145D-01  0.000000D+00  0.000000D+00
      7 -0.420482D+00  0.163580D+00  0.000000D+00 -0.564050D-03  0.274637D-03
      8  0.148105D+00 -0.251852D+00  0.000000D+00  0.351068D-01 -0.930454D-02
      9  0.000000D+00  0.000000D+00 -0.524022D-01  0.000000D+00  0.000000D+00
     10 -0.254161D-01 -0.176331D-01  0.000000D+00  0.100083D-02  0.216953D-03
     11  0.164364D-01  0.156448D-01  0.000000D+00  0.115174D-02  0.677181D-03
     12  0.000000D+00  0.000000D+00 -0.642374D-02  0.000000D+00  0.000000D+00
     13  0.319200D-02  0.357938D-01  0.000000D+00 -0.403948D-02  0.101683D-02
     14  0.658426D-02 -0.843427D-02  0.000000D+00  0.104029D-02  0.172977D-02
     15  0.000000D+00  0.000000D+00  0.825262D-03  0.000000D+00  0.000000D+00
     16 -0.420482D+00 -0.163580D+00  0.000000D+00 -0.564051D-03 -0.274636D-03
     17 -0.148105D+00 -0.251852D+00  0.000000D+00 -0.351068D-01 -0.930454D-02
     18  0.000000D+00  0.000000D+00 -0.524022D-01  0.000000D+00  0.000000D+00
     19  0.319200D-02 -0.357938D-01  0.000000D+00 -0.403948D-02 -0.101683D-02
     20 -0.658426D-02 -0.843427D-02  0.000000D+00 -0.104029D-02  0.172977D-02
     21  0.000000D+00  0.000000D+00  0.825262D-03  0.000000D+00  0.000000D+00
     22 -0.254161D-01  0.176331D-01  0.000000D+00  0.100083D-02 -0.216953D-03
     23 -0.164364D-01  0.156448D-01  0.000000D+00 -0.115174D-02  0.677181D-03
     24  0.000000D+00  0.000000D+00 -0.642374D-02  0.000000D+00  0.000000D+00
                6             7             8             9            10 
      6  0.300731D-01
      7  0.000000D+00  0.916169D+00
      8  0.000000D+00 -0.229682D-01  0.864918D+00
      9  0.749552D-02  0.000000D+00  0.000000D+00  0.579526D-01
     10  0.000000D+00 -0.338096D+00 -0.175988D+00  0.000000D+00  0.350491D+00
     11  0.000000D+00 -0.180338D+00 -0.192958D+00  0.000000D+00  0.182860D+00
     12 -0.402948D-02  0.000000D+00  0.000000D+00 -0.106667D-01  0.000000D+00
     13  0.000000D+00 -0.795300D-01  0.312978D-01  0.000000D+00  0.107587D-01
     14  0.000000D+00  0.298487D-01 -0.443641D+00  0.000000D+00  0.591078D-02
     15  0.800467D-02  0.000000D+00  0.000000D+00 -0.175871D-01  0.000000D+00
     16  0.000000D+00 -0.815850D-01 -0.110519D-01  0.000000D+00  0.205610D-02
     17  0.000000D+00  0.110519D-01  0.340525D-01  0.000000D+00  0.532725D-02
     18  0.749552D-02  0.000000D+00  0.000000D+00  0.129157D-01  0.000000D+00
     19  0.000000D+00  0.203181D-02  0.825001D-03  0.000000D+00 -0.111942D-03
     20  0.000000D+00  0.530379D-02  0.403059D-03  0.000000D+00 -0.221998D-03
     21  0.800467D-02  0.000000D+00  0.000000D+00 -0.363244D-02  0.000000D+00
     22  0.000000D+00  0.205610D-02 -0.532725D-02  0.000000D+00 -0.683302D-03
     23  0.000000D+00 -0.675324D-02 -0.161770D-02  0.000000D+00 -0.471771D-03
     24 -0.402948D-02  0.000000D+00  0.000000D+00  0.592472D-02  0.000000D+00
               11            12            13            14            15 
     11  0.185612D+00
     12  0.000000D+00  0.135820D-01
     13 -0.276041D-01  0.000000D+00  0.693553D-01
     14 -0.774589D-02  0.000000D+00 -0.388564D-01  0.457495D+00
     15  0.000000D+00 -0.987637D-03  0.000000D+00  0.000000D+00  0.139163D-01
     16  0.675324D-02  0.000000D+00  0.203181D-02 -0.530379D-02  0.000000D+00
     17 -0.161770D-02  0.000000D+00 -0.825001D-03  0.403059D-03  0.000000D+00
     18  0.000000D+00  0.592472D-02  0.000000D+00  0.000000D+00 -0.363244D-02
     19  0.268903D-03  0.000000D+00 -0.165637D-02  0.554167D-03  0.000000D+00
     20 -0.505718D-03  0.000000D+00 -0.554167D-03  0.698552D-03  0.000000D+00
     21  0.000000D+00 -0.583177D-03  0.000000D+00  0.000000D+00  0.441144D-04
     22  0.471771D-03  0.000000D+00 -0.111942D-03  0.221998D-03  0.000000D+00
     23  0.893904D-03  0.000000D+00 -0.268903D-03 -0.505718D-03  0.000000D+00
     24  0.000000D+00  0.318406D-02  0.000000D+00  0.000000D+00 -0.583177D-03
               16            17            18            19            20 
     16  0.916169D+00
     17  0.229682D-01  0.864918D+00
     18  0.000000D+00  0.000000D+00  0.579526D-01
     19 -0.795300D-01 -0.312978D-01  0.000000D+00  0.693553D-01
     20 -0.298487D-01 -0.443641D+00  0.000000D+00  0.388564D-01  0.457495D+00
     21  0.000000D+00  0.000000D+00 -0.175871D-01  0.000000D+00  0.000000D+00
     22 -0.338096D+00  0.175988D+00  0.000000D+00  0.107587D-01 -0.591078D-02
     23  0.180338D+00 -0.192958D+00  0.000000D+00  0.276041D-01 -0.774589D-02
     24  0.000000D+00  0.000000D+00 -0.106667D-01  0.000000D+00  0.000000D+00
               21            22            23            24 
     21  0.139163D-01
     22  0.000000D+00  0.350491D+00
     23  0.000000D+00 -0.182860D+00  0.185612D+00
     24 -0.987637D-03  0.000000D+00  0.000000D+00  0.135820D-01
 Force constants in internal coordinates: 
                1             2             3             4             5 
      1  0.376542D+00
      2  0.450147D-02  0.618195D+00
      3  0.450147D-02  0.565288D-01  0.618195D+00
      4  0.547766D-03  0.411119D-02 -0.601892D-02  0.468629D+00
      5 -0.161512D-02  0.724452D-02 -0.367660D-02 -0.140179D-02  0.461337D+00
      6 -0.161512D-02 -0.367660D-02  0.724452D-02  0.452138D-03  0.823275D-03
      7  0.547766D-03 -0.601892D-02  0.411119D-02  0.315628D-03  0.452138D-03
      8  0.345196D-02  0.856222D-02 -0.331087D-01 -0.232208D-02  0.368457D-02
      9  0.345196D-02 -0.331087D-01  0.856222D-02  0.682065D-03  0.701319D-03
     10 -0.690392D-02  0.245464D-01  0.245464D-01  0.164001D-02 -0.438588D-02
     11 -0.134093D-02  0.164618D-01  0.374677D-02  0.212190D-02 -0.751500D-02
     12  0.181315D-02  0.709493D-02 -0.100353D-02 -0.653489D-02  0.229194D-02
     13 -0.472226D-03 -0.235567D-01 -0.274324D-02  0.441299D-02  0.522306D-02
     14  0.181315D-02 -0.100353D-02  0.709493D-02 -0.191360D-03  0.995411D-03
     15 -0.134093D-02  0.374677D-02  0.164618D-01  0.194001D-03 -0.760965D-03
     16 -0.472226D-03 -0.274324D-02 -0.235567D-01 -0.264062D-05 -0.234446D-03
     17  0.000000D+00  0.000000D+00  0.000000D+00  0.000000D+00  0.000000D+00
     18  0.000000D+00  0.000000D+00  0.000000D+00  0.000000D+00  0.000000D+00
     19  0.000000D+00  0.000000D+00  0.000000D+00  0.000000D+00  0.000000D+00
     20  0.000000D+00  0.000000D+00  0.000000D+00  0.000000D+00  0.000000D+00
     21  0.000000D+00  0.000000D+00  0.000000D+00  0.000000D+00  0.000000D+00
     22  0.000000D+00  0.000000D+00  0.000000D+00  0.000000D+00  0.000000D+00
     23  0.000000D+00  0.000000D+00  0.000000D+00  0.000000D+00  0.000000D+00
     24  0.000000D+00  0.000000D+00  0.000000D+00  0.000000D+00  0.000000D+00
                6             7             8             9            10 
      6  0.461337D+00
      7 -0.140179D-02  0.468629D+00
      8  0.701318D-03  0.682064D-03  0.110474D+00
      9  0.368457D-02 -0.232208D-02 -0.364485D-01  0.110474D+00
     10 -0.438588D-02  0.164002D-02 -0.740257D-01 -0.740257D-01  0.148051D+00
     11 -0.760965D-03  0.194001D-03 -0.814827D-02 -0.413747D-02  0.122857D-01
     12  0.995411D-03 -0.191360D-03  0.950307D-02 -0.208832D-03 -0.929423D-02
     13 -0.234446D-03 -0.264050D-05 -0.135479D-02  0.434631D-02 -0.299151D-02
     14  0.229194D-02 -0.653489D-02 -0.208832D-03  0.950307D-02 -0.929423D-02
     15 -0.751500D-02  0.212190D-02 -0.413747D-02 -0.814827D-02  0.122857D-01
     16  0.522306D-02  0.441299D-02  0.434631D-02 -0.135479D-02 -0.299151D-02
     17  0.000000D+00  0.000000D+00  0.000000D+00  0.000000D+00  0.000000D+00
     18  0.000000D+00  0.000000D+00  0.000000D+00  0.000000D+00  0.000000D+00
     19  0.000000D+00  0.000000D+00  0.000000D+00  0.000000D+00  0.000000D+00
     20  0.000000D+00  0.000000D+00  0.000000D+00  0.000000D+00  0.000000D+00
     21  0.000000D+00  0.000000D+00  0.000000D+00  0.000000D+00  0.000000D+00
     22  0.000000D+00  0.000000D+00  0.000000D+00  0.000000D+00  0.000000D+00
     23  0.000000D+00  0.000000D+00  0.000000D+00  0.000000D+00  0.000000D+00
     24  0.000000D+00  0.000000D+00  0.000000D+00  0.000000D+00  0.000000D+00
               11            12            13            14            15 
     11  0.860239D-01
     12 -0.459847D-01  0.839177D-01
     13 -0.400393D-01 -0.379330D-01  0.779723D-01
     14 -0.163554D-02  0.250548D-02 -0.869947D-03  0.839177D-01
     15  0.216609D-02 -0.163554D-02 -0.530549D-03 -0.459847D-01  0.860239D-01
     16 -0.530549D-03 -0.869947D-03  0.140050D-02 -0.379330D-01 -0.400393D-01
     17  0.000000D+00  0.000000D+00  0.000000D+00  0.000000D+00  0.000000D+00
     18  0.000000D+00  0.000000D+00  0.000000D+00  0.000000D+00  0.000000D+00
     19  0.000000D+00  0.000000D+00  0.000000D+00  0.000000D+00  0.000000D+00
     20  0.000000D+00  0.000000D+00  0.000000D+00  0.000000D+00  0.000000D+00
     21  0.000000D+00  0.000000D+00  0.000000D+00  0.000000D+00  0.000000D+00
     22  0.000000D+00  0.000000D+00  0.000000D+00  0.000000D+00  0.000000D+00
     23  0.000000D+00  0.000000D+00  0.000000D+00  0.000000D+00  0.000000D+00
     24  0.000000D+00  0.000000D+00  0.000000D+00  0.000000D+00  0.000000D+00
               16            17            18            19            20 
     16  0.779723D-01
     17  0.000000D+00  0.104309D-01
     18  0.000000D+00  0.474025D-02  0.141542D-01
     19  0.000000D+00  0.381600D-02 -0.594328D-02  0.164376D-01
     20  0.000000D+00 -0.187469D-02  0.347070D-02  0.667835D-02  0.120237D-01
     21  0.000000D+00 -0.422910D-02 -0.590310D-02  0.645443D-02  0.478043D-02
     22  0.000000D+00 -0.399224D-02 -0.422910D-02  0.262271D-02  0.238584D-02
     23  0.000000D+00  0.238584D-02  0.478043D-02 -0.616721D-02 -0.377262D-02
     24  0.000000D+00  0.262271D-02  0.645443D-02 -0.999893D-02 -0.616721D-02
               21            22            23            24 
     21  0.141542D-01
     22  0.474025D-02  0.104309D-01
     23  0.347070D-02 -0.187469D-02  0.120237D-01
     24 -0.594328D-02  0.381600D-02  0.667835D-02  0.164376D-01
 Leave Link  716 at Thu Feb 26 00:28:41 2015, MaxMem= 1073741824 cpu:       0.2
 (Enter /apps/gaussian/g09_c01/g09/l103.exe)

 GradGradGradGradGradGradGradGradGradGradGradGradGradGradGradGradGradGrad
 Berny optimization.
 Red2BG is reusing G-inverse.
 Internal  Forces:  Max     0.005781005 RMS     0.002033385
 Search for a local minimum.
 Step number   1 out of a maximum of   34
 All quantities printed in internal units (Hartrees-Bohrs-Radians)
 RMS Force = .20334D-02 SwitMx=.10000D-02 MixMth= 1
 Mixed Optimization -- RFO/linear search
 Second derivative matrix not updated -- analytic derivatives used.
 ITU=  0
     Eigenvalues ---    0.01261   0.01367   0.01677   0.02090   0.04214
     Eigenvalues ---    0.11156   0.11686   0.12331   0.12735   0.14772
     Eigenvalues ---    0.22422   0.37701   0.45884   0.46261   0.46858
     Eigenvalues ---    0.46938   0.56925   0.68101
 RFO step:  Lambda=-1.91103593D-04 EMin= 1.26089791D-02
 Linear search not attempted -- first point.
 Iteration  1 RMS(Cart)=  0.00832726 RMS(Int)=  0.00001329
 Iteration  2 RMS(Cart)=  0.00001404 RMS(Int)=  0.00000000
 Iteration  3 RMS(Cart)=  0.00000000 RMS(Int)=  0.00000000
 ClnCor:  largest displacement from symmetrization is 7.04D-11 for atom     2.
 Variable       Old X    -DE/DX   Delta X   Delta X   Delta X     New X
                                 (Linear)    (Quad)   (Total)
    R1        2.05337   0.00324   0.00000   0.00868   0.00868   2.06204
    R2        2.48365  -0.00578   0.00000  -0.00788  -0.00788   2.47577
    R3        2.48365  -0.00578   0.00000  -0.00788  -0.00788   2.47577
    R4        1.91586  -0.00188   0.00000  -0.00414  -0.00414   1.91171
    R5        1.91959  -0.00190   0.00000  -0.00423  -0.00423   1.91535
    R6        1.91959  -0.00190   0.00000  -0.00423  -0.00423   1.91535
    R7        1.91586  -0.00188   0.00000  -0.00414  -0.00414   1.91171
    A1        2.04681   0.00073   0.00000   0.00213   0.00213   2.04894
    A2        2.04681   0.00073   0.00000   0.00213   0.00213   2.04894
    A3        2.18957  -0.00146   0.00000  -0.00427  -0.00427   2.18530
    A4        2.09627  -0.00077   0.00000  -0.00445  -0.00445   2.09183
    A5        2.15059  -0.00043   0.00000  -0.00410  -0.00410   2.14649
    A6        2.03632   0.00120   0.00000   0.00855   0.00855   2.04487
    A7        2.15059  -0.00043   0.00000  -0.00410  -0.00410   2.14649
    A8        2.09627  -0.00077   0.00000  -0.00445  -0.00445   2.09183
    A9        2.03632   0.00120   0.00000   0.00855   0.00855   2.04487
    D1        0.00000   0.00000   0.00000   0.00000   0.00000   0.00000
    D2        3.14159   0.00000   0.00000   0.00000   0.00000   3.14159
    D3        3.14159   0.00000   0.00000   0.00000   0.00000   3.14159
    D4        0.00000   0.00000   0.00000   0.00000   0.00000   0.00000
    D5        3.14159   0.00000   0.00000   0.00000   0.00000   3.14159
    D6        0.00000   0.00000   0.00000   0.00000   0.00000   0.00000
    D7        0.00000   0.00000   0.00000   0.00000   0.00000   0.00000
    D8        3.14159   0.00000   0.00000   0.00000   0.00000   3.14159
         Item               Value     Threshold  Converged?
 Maximum Force            0.005781     0.000002     NO 
 RMS     Force            0.002033     0.000001     NO 
 Maximum Displacement     0.021753     0.000006     NO 
 RMS     Displacement     0.008323     0.000004     NO 
 Predicted change in Energy=-9.560116D-05
 GradGradGradGradGradGradGradGradGradGradGradGradGradGradGradGradGradGrad

 Leave Link  103 at Thu Feb 26 00:28:41 2015, MaxMem= 1073741824 cpu:       0.0
 (Enter /apps/gaussian/g09_c01/g09/l202.exe)
                          Input orientation:                          
 ---------------------------------------------------------------------
 Center     Atomic      Atomic             Coordinates (Angstroms)
 Number     Number       Type             X           Y           Z
 ---------------------------------------------------------------------
      1          6           0        0.000000    0.426532    0.000000
      2          1           0        0.000000    1.517718    0.000000
      3          7           0        1.163191   -0.176302    0.000000
      4          1           0        2.014004    0.370986    0.000000
      5          1           0        1.261903   -1.185046    0.000000
      6          7           0       -1.163191   -0.176302    0.000000
      7          1           0       -1.261903   -1.185046    0.000000
      8          1           0       -2.014004    0.370986    0.000000
 ---------------------------------------------------------------------
                    Distance matrix (angstroms):
                    1          2          3          4          5
     1  C    0.000000
     2  H    1.091186   0.000000
     3  N    1.310123   2.054925   0.000000
     4  H    2.014770   2.317586   1.011635   0.000000
     5  H    2.046847   2.982839   1.013562   1.728262   0.000000
     6  N    1.310123   2.054925   2.326383   3.223987   2.626527
     7  H    2.046847   2.982839   2.626527   3.626679   2.523805
     8  H    2.014770   2.317586   3.223987   4.028008   3.626679
                    6          7          8
     6  N    0.000000
     7  H    1.013562   0.000000
     8  H    1.011635   1.728262   0.000000
 Stoichiometry    CH5N2(1+)
 Framework group  C2V[C2(CH),SGV(H4N2)]
 Deg. of freedom     7
 Full point group                 C2V     NOp   4
 RotChk:  IX=0 Diff= 1.18D-16
 Largest Abelian subgroup         C2V     NOp   4
 Largest concise Abelian subgroup C2      NOp   2
                         Standard orientation:                         
 ---------------------------------------------------------------------
 Center     Atomic      Atomic             Coordinates (Angstroms)
 Number     Number       Type             X           Y           Z
 ---------------------------------------------------------------------
      1          6           0        0.000000    0.000000    0.427309
      2          1           0        0.000000    0.000000    1.518495
      3          7           0        0.000000    1.163191   -0.175524
      4          1           0        0.000000    2.014004    0.371763
      5          1           0        0.000000    1.261903   -1.184268
      6          7           0        0.000000   -1.163191   -0.175524
      7          1           0        0.000000   -1.261903   -1.184268
      8          1           0        0.000000   -2.014004    0.371763
 ---------------------------------------------------------------------
 Rotational constants (GHZ):     59.5748330     10.2556020      8.7494196
 Leave Link  202 at Thu Feb 26 00:28:41 2015, MaxMem= 1073741824 cpu:       0.0
 (Enter /apps/gaussian/g09_c01/g09/l301.exe)
 Standard basis: Aug-CC-pVDZ (5D, 7F)
 Ernie: Thresh=  0.10000D-02 Tol=  0.10000D-05 Strict=F.
 Ernie:  6 primitive shells out of 110 were deleted.
 There are    46 symmetry adapted basis functions of A1  symmetry.
 There are    13 symmetry adapted basis functions of A2  symmetry.
 There are    18 symmetry adapted basis functions of B1  symmetry.
 There are    37 symmetry adapted basis functions of B2  symmetry.
 Integral buffers will be    131072 words long.
 Raffenetti 2 integral format.
 Two-electron integral symmetry is turned on.
   114 basis functions,   184 primitive gaussians,   120 cartesian basis functions
    12 alpha electrons       12 beta electrons
       nuclear repulsion energy        79.6517745295 Hartrees.
 IExCor= 1009 DFT=T Ex+Corr=PBE1PBE ExCW=0 ScaHFX=  0.250000
 ScaDFX=  0.750000  0.750000  1.000000  1.000000 ScalE2=  1.000000  1.000000
 IRadAn=      5 IRanWt=     -1 IRanGd=            0 ICorTp=0
 NAtoms=    8 NActive=    8 NUniq=    5 SFac= 2.56D+00 NAtFMM=   60 NAOKFM=F Big=F
 Leave Link  301 at Thu Feb 26 00:28:41 2015, MaxMem= 1073741824 cpu:       0.4
 (Enter /apps/gaussian/g09_c01/g09/l302.exe)
 NPDir=0 NMtPBC=     1 NCelOv=     1 NCel=       1 NClECP=     1 NCelD=      1
         NCelK=      1 NCelE2=     1 NClLst=     1 CellRange=     0.0.
 One-electron integrals computed using PRISM.
 One-electron integral symmetry used in STVInt
 NBasis=   114 RedAO= T  NBF=    46    13    18    37
 NBsUse=   114 1.00D-06 NBFU=    46    13    18    37
 Precomputing XC quadrature grid using
 IXCGrd= 2 IRadAn=           5 IRanWt=          -1 IRanGd=           0 AccXCQ= 0.00D+00.
 NRdTot=     686 NPtTot=      183350 NUsed=      188269 NTot=      188301
 NSgBfM=   120   120   120   120   120 NAtAll=     8     8.
 Leave Link  302 at Thu Feb 26 00:28:41 2015, MaxMem= 1073741824 cpu:       1.2
 (Enter /apps/gaussian/g09_c01/g09/l303.exe)
 DipDrv:  MaxL=1.
 Leave Link  303 at Thu Feb 26 00:28:41 2015, MaxMem= 1073741824 cpu:       0.2
 (Enter /apps/gaussian/g09_c01/g09/l401.exe)
 Initial guess read from the read-write file.
 B after Tr=     0.000000    0.000000    0.000000
         Rot=    1.000000    0.000000    0.000000    0.000000 Ang=   0.00 deg.
 Guess basis will be translated and rotated to current coordinates.
 Initial guess orbital symmetries:
       Occupied  (B2) (A1) (A1) (A1) (B2) (A1) (A1) (B2) (B2) (A1)
                 (B1) (A2)
       Virtual   (B1) (A1) (A1) (B2) (A1) (B1) (B2) (A1) (B2) (A1)
                 (A2) (A1) (B1) (B2) (A1) (B2) (A1) (B2) (A1) (B1)
                 (A1) (B2) (B2) (A2) (A1) (B1) (A1) (B2) (B2) (A1)
                 (A2) (B1) (A1) (A1) (A1) (B2) (A2) (A1) (B1) (B2)
                 (A1) (B2) (B2) (A1) (B1) (B2) (A1) (B2) (A2) (B2)
                 (B1) (A1) (A1) (A2) (B2) (B1) (A1) (A1) (B2) (A2)
                 (A1) (B1) (B2) (A1) (B1) (B2) (A1) (A2) (B2) (A1)
                 (B1) (A2) (B1) (A1) (B2) (A2) (B2) (A1) (A1) (B1)
                 (A1) (B2) (B2) (A1) (B2) (B2) (A1) (A1) (B1) (A2)
                 (B2) (B1) (A1) (A2) (B2) (A1) (B2) (A1) (B2) (A1)
                 (B2) (A1)
 The electronic state of the initial guess is 1-A1.
 Generating alternative initial guess.
 Harris functional with IExCor= 1009 diagonalized for initial guess.
 ExpMin= 2.97D-02 ExpMax= 9.05D+03 ExpMxC= 3.09D+02 IAcc=3 IRadAn=         5 AccDes= 0.00D+00
 HarFok:  IExCor= 1009 AccDes= 0.00D+00 IRadAn=         5 IDoV= 1
 ScaDFX=  1.000000  1.000000  1.000000  1.000000
 FoFCou: FMM=F IPFlag=           0 FMFlag=      100000 FMFlg1=           0
         NFxFlg=           0 DoJE=T BraDBF=F KetDBF=T FulRan=T
         Omega=  0.000000  0.000000  1.000000  0.000000  0.000000 ICntrl=     500 IOpCl=  0
         NMat0=    1 NMatS0=    1 NMatT0=    0 NMatD0=    1 NMtDS0=    0 NMtDT0=    0
         I1Cent=           4 NGrid=           0.
 Petite list used in FoFCou.
 Harris En= -150.296496649976    
 Leave Link  401 at Thu Feb 26 00:28:41 2015, MaxMem= 1073741824 cpu:       2.5
 (Enter /apps/gaussian/g09_c01/g09/l502.exe)
 Closed shell SCF:
 Requested convergence on RMS density matrix=1.00D-08 within 128 cycles.
 Requested convergence on MAX density matrix=1.00D-06.
 Requested convergence on             energy=1.00D-06.
 No special actions if energy rises.
 Using DIIS extrapolation, IDIIS=  1040.
 Integral symmetry usage will be decided dynamically.
       188184 words used for storage of precomputed grid.
 Keep R1 ints in memory in canonical form, NReq=27554120.
 IEnd=      251662 IEndB=      251662 NGot=  1073741824 MDV=  1047163865
 LenX=  1047163865 LenY=  1047149024
 Symmetry not used in FoFDir.
 MinBra= 0 MaxBra= 2 Meth= 1.
 IRaf=       0 NMat=   1 IRICut=       1 DoRegI=T DoRafI=F ISym2E= 0 JSym2E=0.

 Cycle   1  Pass 1  IDiag  1:
 E= -150.233759526655    
 DIIS: error= 4.58D-04 at cycle   1 NSaved=   1.
 NSaved= 1 IEnMin= 1 EnMin= -150.233759526655     IErMin= 1 ErrMin= 4.58D-04
 ErrMax= 4.58D-04 EMaxC= 1.00D-01 BMatC= 3.69D-05 BMatP= 3.69D-05
 IDIUse=3 WtCom= 9.95D-01 WtEn= 4.58D-03
 Coeff-Com:  0.100D+01
 Coeff-En:   0.100D+01
 Coeff:      0.100D+01
 Gap=     0.296 Goal=   None    Shift=    0.000
 RMSDP=1.51D-04 MaxDP=3.09D-03              OVMax= 1.63D-03

 Cycle   2  Pass 1  IDiag  1:
 E= -150.233791667517     Delta-E=       -0.000032140863 Rises=F Damp=F
 DIIS: error= 1.19D-04 at cycle   2 NSaved=   2.
 NSaved= 2 IEnMin= 2 EnMin= -150.233791667517     IErMin= 2 ErrMin= 1.19D-04
 ErrMax= 1.19D-04 EMaxC= 1.00D-01 BMatC= 1.67D-06 BMatP= 3.69D-05
 IDIUse=3 WtCom= 9.99D-01 WtEn= 1.19D-03
 Coeff-Com:  0.713D-01 0.929D+00
 Coeff-En:   0.000D+00 0.100D+01
 Coeff:      0.712D-01 0.929D+00
 Gap=     0.296 Goal=   None    Shift=    0.000
 RMSDP=1.66D-05 MaxDP=4.09D-04 DE=-3.21D-05 OVMax= 5.65D-04

 Cycle   3  Pass 1  IDiag  1:
 E= -150.233792187654     Delta-E=       -0.000000520137 Rises=F Damp=F
 DIIS: error= 1.05D-04 at cycle   3 NSaved=   3.
 NSaved= 3 IEnMin= 3 EnMin= -150.233792187654     IErMin= 3 ErrMin= 1.05D-04
 ErrMax= 1.05D-04 EMaxC= 1.00D-01 BMatC= 1.14D-06 BMatP= 1.67D-06
 IDIUse=3 WtCom= 9.99D-01 WtEn= 1.05D-03
 Coeff-Com: -0.578D-02 0.450D+00 0.556D+00
 Coeff-En:   0.000D+00 0.387D+00 0.613D+00
 Coeff:     -0.577D-02 0.450D+00 0.556D+00
 Gap=     0.296 Goal=   None    Shift=    0.000
 RMSDP=7.33D-06 MaxDP=1.91D-04 DE=-5.20D-07 OVMax= 2.44D-04

 Cycle   4  Pass 1  IDiag  1:
 E= -150.233793183753     Delta-E=       -0.000000996099 Rises=F Damp=F
 DIIS: error= 1.31D-05 at cycle   4 NSaved=   4.
 NSaved= 4 IEnMin= 4 EnMin= -150.233793183753     IErMin= 4 ErrMin= 1.31D-05
 ErrMax= 1.31D-05 EMaxC= 1.00D-01 BMatC= 2.05D-08 BMatP= 1.14D-06
 IDIUse=1 WtCom= 1.00D+00 WtEn= 0.00D+00
 Coeff-Com: -0.446D-02 0.104D+00 0.185D+00 0.715D+00
 Coeff:     -0.446D-02 0.104D+00 0.185D+00 0.715D+00
 Gap=     0.296 Goal=   None    Shift=    0.000
 RMSDP=1.23D-06 MaxDP=3.93D-05 DE=-9.96D-07 OVMax= 6.68D-05

 Cycle   5  Pass 1  IDiag  1:
 E= -150.233793196099     Delta-E=       -0.000000012345 Rises=F Damp=F
 DIIS: error= 6.97D-06 at cycle   5 NSaved=   5.
 NSaved= 5 IEnMin= 5 EnMin= -150.233793196099     IErMin= 5 ErrMin= 6.97D-06
 ErrMax= 6.97D-06 EMaxC= 1.00D-01 BMatC= 4.33D-09 BMatP= 2.05D-08
 IDIUse=1 WtCom= 1.00D+00 WtEn= 0.00D+00
 Coeff-Com: -0.160D-02 0.132D-01 0.489D-01 0.374D+00 0.565D+00
 Coeff:     -0.160D-02 0.132D-01 0.489D-01 0.374D+00 0.565D+00
 Gap=     0.296 Goal=   None    Shift=    0.000
 RMSDP=4.89D-07 MaxDP=1.70D-05 DE=-1.23D-08 OVMax= 2.97D-05

 Cycle   6  Pass 1  IDiag  1:
 E= -150.233793200122     Delta-E=       -0.000000004023 Rises=F Damp=F
 DIIS: error= 5.82D-07 at cycle   6 NSaved=   6.
 NSaved= 6 IEnMin= 6 EnMin= -150.233793200122     IErMin= 6 ErrMin= 5.82D-07
 ErrMax= 5.82D-07 EMaxC= 1.00D-01 BMatC= 4.22D-11 BMatP= 4.33D-09
 IDIUse=1 WtCom= 1.00D+00 WtEn= 0.00D+00
 Coeff-Com: -0.100D-03-0.227D-02 0.200D-02 0.334D-01 0.124D+00 0.843D+00
 Coeff:     -0.100D-03-0.227D-02 0.200D-02 0.334D-01 0.124D+00 0.843D+00
 Gap=     0.296 Goal=   None    Shift=    0.000
 RMSDP=6.25D-08 MaxDP=1.40D-06 DE=-4.02D-09 OVMax= 2.93D-06

 Cycle   7  Pass 1  IDiag  1:
 E= -150.233793200167     Delta-E=       -0.000000000045 Rises=F Damp=F
 DIIS: error= 6.92D-08 at cycle   7 NSaved=   7.
 NSaved= 7 IEnMin= 7 EnMin= -150.233793200167     IErMin= 7 ErrMin= 6.92D-08
 ErrMax= 6.92D-08 EMaxC= 1.00D-01 BMatC= 4.04D-13 BMatP= 4.22D-11
 IDIUse=1 WtCom= 1.00D+00 WtEn= 0.00D+00
 Coeff-Com:  0.325D-06-0.650D-03-0.339D-03 0.180D-02 0.175D-01 0.154D+00
 Coeff-Com:  0.828D+00
 Coeff:      0.325D-06-0.650D-03-0.339D-03 0.180D-02 0.175D-01 0.154D+00
 Coeff:      0.828D+00
 Gap=     0.296 Goal=   None    Shift=    0.000
 RMSDP=8.18D-09 MaxDP=1.94D-07 DE=-4.50D-11 OVMax= 2.37D-07

 SCF Done:  E(RPBE1PBE) =  -150.233793200     A.U. after    7 cycles
             Convg  =    0.8175D-08             -V/T =  2.0061
 KE= 1.493169937440D+02 PE=-5.028910763531D+02 EE= 1.236885148795D+02
 Leave Link  502 at Thu Feb 26 00:28:43 2015, MaxMem= 1073741824 cpu:      13.0
 (Enter /apps/gaussian/g09_c01/g09/l801.exe)
 Range of M.O.s used for correlation:     1   114
 NBasis=   114 NAE=    12 NBE=    12 NFC=     0 NFV=     0
 NROrb=    114 NOA=    12 NOB=    12 NVA=   102 NVB=   102

 **** Warning!!: The largest alpha MO coefficient is  0.23392703D+02

 Leave Link  801 at Thu Feb 26 00:28:43 2015, MaxMem= 1073741824 cpu:       0.1
 (Enter /apps/gaussian/g09_c01/g09/l1002.exe)
 Minotr:  Closed shell wavefunction.
          Direct CPHF calculation.
          Differentiating once with respect to electric field.
                with respect to dipole field.
          Electric field/nuclear overlap derivatives assumed to be zero.
          Using symmetry in CPHF.
          Requested convergence is 1.0D-08 RMS, and 1.0D-07 maximum.
          Secondary convergence is 1.0D-12 RMS, and 1.0D-12 maximum.
          NewPWx=F KeepS1=T KeepF1=T KeepIn=T MapXYZ=F SortEE=F KeepMc=T.
          MDV=    1073741756 using IRadAn=       1.
 Generate precomputed XC quadrature information.
          Keep R1 ints in memory in canonical form, NReq=27181278.
 Symmetry not used in FoFDir.
 MinBra= 0 MaxBra= 2 Meth= 1.
 IRaf=       0 NMat=   1 IRICut=       1 DoRegI=T DoRafI=F ISym2E= 0 JSym2E=0.
          Solving linear equations simultaneously, MaxMat=       0.
          There are     3 degrees of freedom in the 1st order CPHF.  IDoFFX=0.
      3 vectors produced by pass  0 Test12= 4.08D-14 3.33D-08 XBig12= 3.06D+01 4.65D+00.
 AX will form     3 AO Fock derivatives at one time.
      3 vectors produced by pass  1 Test12= 4.08D-14 3.33D-08 XBig12= 8.30D+00 8.73D-01.
      3 vectors produced by pass  2 Test12= 4.08D-14 3.33D-08 XBig12= 8.41D-01 2.92D-01.
      3 vectors produced by pass  3 Test12= 4.08D-14 3.33D-08 XBig12= 1.78D-02 3.28D-02.
      3 vectors produced by pass  4 Test12= 4.08D-14 3.33D-08 XBig12= 9.04D-04 6.63D-03.
      3 vectors produced by pass  5 Test12= 4.08D-14 3.33D-08 XBig12= 1.52D-04 3.05D-03.
      3 vectors produced by pass  6 Test12= 4.08D-14 3.33D-08 XBig12= 3.77D-06 4.58D-04.
      3 vectors produced by pass  7 Test12= 4.08D-14 3.33D-08 XBig12= 6.72D-08 7.60D-05.
      2 vectors produced by pass  8 Test12= 4.08D-14 3.33D-08 XBig12= 4.58D-10 5.87D-06.
      2 vectors produced by pass  9 Test12= 4.08D-14 3.33D-08 XBig12= 9.09D-12 7.79D-07.
      1 vectors produced by pass 10 Test12= 4.08D-14 3.33D-08 XBig12= 3.68D-14 3.66D-08.
 Inverted reduced A of dimension    29 with in-core refinement.
 End of Minotr Frequency-dependent properties file   721 does not exist.
 End of Minotr Frequency-dependent properties file   722 does not exist.
 Leave Link 1002 at Thu Feb 26 00:28:50 2015, MaxMem= 1073741824 cpu:      56.6
 (Enter /apps/gaussian/g09_c01/g09/l1101.exe)
 Using compressed storage, NAtomX=     8.
 Will process   9 centers per pass.
 Leave Link 1101 at Thu Feb 26 00:28:50 2015, MaxMem= 1073741824 cpu:       1.1
 (Enter /apps/gaussian/g09_c01/g09/l1102.exe)
 Symmetrizing basis deriv contribution to polar:
 IMax=3 JMax=2 DiffMx= 0.00D+00
 Leave Link 1102 at Thu Feb 26 00:28:50 2015, MaxMem= 1073741824 cpu:       0.2
 (Enter /apps/gaussian/g09_c01/g09/l1110.exe)
 Forming Gx(P) for the SCF density, NAtomX=     8.
 Integral derivatives from FoFDir/FoFCou, PRISM(SPDF).
 Do as many integral derivatives as possible in FoFDir.
 G2DrvN: MDV=    1073741656.
 G2DrvN: will do     9 centers at a time, making    1 passes doing MaxLOS=2.
 Calling FoFCou, ICntrl=  3107 FMM=F I1Cent=   0 AccDes= 0.00D+00.
 FoFCou: FMM=F IPFlag=           0 FMFlag=      100000 FMFlg1=           0
         NFxFlg=           0 DoJE=F BraDBF=F KetDBF=F FulRan=T
         Omega=  0.000000  0.000000  1.000000  0.000000  0.000000 ICntrl=    3107 IOpCl=  0
         NMat0=    1 NMatS0=    1 NMatT0=    0 NMatD0=    4 NMtDS0=    3 NMtDT0=    0
         I1Cent=           0 NGrid=           0.
 Petite list used in FoFCou.
 FoFDir/FoFCou used for L=0 through L=2.
 End of G2Drv Frequency-dependent properties file   721 does not exist.
 End of G2Drv Frequency-dependent properties file   722 does not exist.
 Leave Link 1110 at Thu Feb 26 00:28:56 2015, MaxMem= 1073741824 cpu:      46.0
 (Enter /apps/gaussian/g09_c01/g09/l1002.exe)
 Minotr:  Closed shell wavefunction.
          IDoAtm=11111111
          Direct CPHF calculation.
          Differentiating once with respect to electric field.
                with respect to dipole field.
          Differentiating once with respect to nuclear coordinates.
          Using symmetry in CPHF.
          Requested convergence is 1.0D-08 RMS, and 1.0D-07 maximum.
          Secondary convergence is 1.0D-12 RMS, and 1.0D-12 maximum.
          NewPWx=T KeepS1=F KeepF1=F KeepIn=T MapXYZ=F SortEE=F KeepMc=T.
          MDV=    1073741740 using IRadAn=       1.
 Generate precomputed XC quadrature information.
          Keep R1 ints in memory in canonical form, NReq=27181446.
 Symmetry not used in FoFDir.
 MinBra= 0 MaxBra= 2 Meth= 1.
 IRaf=       0 NMat=   1 IRICut=       1 DoRegI=T DoRafI=F ISym2E= 0 JSym2E=0.
          Solving linear equations simultaneously, MaxMat=       0.
          There are    18 degrees of freedom in the 1st order CPHF.  IDoFFX=4.
 Will reuse    3 saved solutions.
     15 vectors produced by pass  0 Test12= 6.80D-15 5.56D-09 XBig12= 1.51D-01 1.53D-01.
 AX will form    15 AO Fock derivatives at one time.
     15 vectors produced by pass  1 Test12= 6.80D-15 5.56D-09 XBig12= 1.64D-02 6.68D-02.
     15 vectors produced by pass  2 Test12= 6.80D-15 5.56D-09 XBig12= 2.92D-04 4.95D-03.
     15 vectors produced by pass  3 Test12= 6.80D-15 5.56D-09 XBig12= 2.47D-06 4.09D-04.
     15 vectors produced by pass  4 Test12= 6.80D-15 5.56D-09 XBig12= 5.21D-09 1.30D-05.
     14 vectors produced by pass  5 Test12= 6.80D-15 5.56D-09 XBig12= 1.09D-11 8.12D-07.
      4 vectors produced by pass  6 Test12= 6.80D-15 5.56D-09 XBig12= 1.47D-14 2.98D-08.
 Inverted reduced A of dimension    93 with in-core refinement.
 FullF1:  Do perturbations    1 to    18.
 Isotropic polarizability for W=    0.000000       26.68 Bohr**3.
 FullF1:  Do perturbations    1 to     6.
 End of Minotr Frequency-dependent properties file   721 does not exist.
 End of Minotr Frequency-dependent properties file   722 does not exist.
 Leave Link 1002 at Thu Feb 26 00:29:08 2015, MaxMem= 1073741824 cpu:      92.5
 (Enter /apps/gaussian/g09_c01/g09/l701.exe)
 Compute integral second derivatives.
 ... and contract with generalized density number  0.
 Leave Link  701 at Thu Feb 26 00:29:08 2015, MaxMem= 1073741824 cpu:       1.4
 (Enter /apps/gaussian/g09_c01/g09/l702.exe)
 L702 exits ... SP integral derivatives will be done elsewhere.
 Leave Link  702 at Thu Feb 26 00:29:08 2015, MaxMem= 1073741824 cpu:       0.1
 (Enter /apps/gaussian/g09_c01/g09/l703.exe)
 Compute integral second derivatives, UseDBF=F ICtDFT=           0.
 Integral derivatives from FoFDir, PRISM(SPDF).
 Calling FoFJK, ICntrl=    100127 FMM=F ISym2X=1 I1Cent= 0 IOpClX= 0 NMat=1 NMatS=1 NMatT=0.
 FoFCou: FMM=F IPFlag=           0 FMFlag=      100000 FMFlg1=         800
         NFxFlg=           0 DoJE=F BraDBF=F KetDBF=F FulRan=T
         Omega=  0.000000  0.000000  1.000000  0.000000  0.000000 ICntrl=  100127 IOpCl=  0
         NMat0=    1 NMatS0=    1 NMatT0=    0 NMatD0=    1 NMtDS0=    0 NMtDT0=    0
         I1Cent=           0 NGrid=           0.
 Petite list used in FoFCou.
 Leave Link  703 at Thu Feb 26 00:29:13 2015, MaxMem= 1073741824 cpu:      38.3
 (Enter /apps/gaussian/g09_c01/g09/l716.exe)
 Dipole        =-4.27184015D-17-6.05886868D-14-8.12329059D-02
 Polarizability= 1.82192155D+01 1.09294327D-12 3.70347516D+01
                 1.12623260D-11 6.43066329D-14 2.47991841D+01
 HyperPolar    =-3.09926875D-10 1.73188184D-10-7.13398049D-11
                 1.52018834D-11-1.73406772D-01 4.39727699D-11
                 3.06623960D+01 1.24964299D-11-3.24726253D-11
                -5.71570344D+00
 ***** Axes restored to original set *****
 -------------------------------------------------------------------
 Center     Atomic                   Forces (Hartrees/Bohr)
 Number     Number              X              Y              Z
 -------------------------------------------------------------------
      1        6           0.000000000    0.000001826    0.000000000
      2        1           0.000000000    0.000044915    0.000000000
      3        7           0.000054657   -0.000016455    0.000000000
      4        1           0.000013159    0.000006828    0.000000000
      5        1           0.000001894   -0.000013743    0.000000000
      6        7          -0.000054657   -0.000016455    0.000000000
      7        1          -0.000001894   -0.000013743    0.000000000
      8        1          -0.000013159    0.000006828    0.000000000
 -------------------------------------------------------------------
 Cartesian Forces:  Max     0.000054657 RMS     0.000019750
 Force constants in Cartesian coordinates: 
                1             2             3             4             5 
      1  0.970075D+00
      2  0.000000D+00  0.848587D+00
      3  0.000000D+00  0.000000D+00  0.168305D+00
      4 -0.622965D-01  0.000000D+00  0.000000D+00  0.691697D-01
      5  0.000000D+00 -0.352610D+00  0.000000D+00  0.000000D+00  0.366765D+00
      6  0.000000D+00  0.000000D+00 -0.544375D-01  0.000000D+00  0.000000D+00
      7 -0.431224D+00  0.169588D+00  0.000000D+00 -0.443351D-03  0.316757D-03
      8  0.154952D+00 -0.254855D+00  0.000000D+00  0.349518D-01 -0.948210D-02
      9  0.000000D+00  0.000000D+00 -0.519168D-01  0.000000D+00  0.000000D+00
     10 -0.259358D-01 -0.178909D-01  0.000000D+00  0.102520D-02  0.206704D-03
     11  0.166308D-01  0.157713D-01  0.000000D+00  0.121577D-02  0.670985D-03
     12  0.000000D+00  0.000000D+00 -0.622079D-02  0.000000D+00  0.000000D+00
     13  0.327076D-02  0.362154D-01  0.000000D+00 -0.401843D-02  0.104421D-02
     14  0.665906D-02 -0.890487D-02  0.000000D+00  0.105889D-02  0.173344D-02
     15  0.000000D+00  0.000000D+00  0.120375D-02  0.000000D+00  0.000000D+00
     16 -0.431224D+00 -0.169588D+00  0.000000D+00 -0.443351D-03 -0.316756D-03
     17 -0.154952D+00 -0.254855D+00  0.000000D+00 -0.349518D-01 -0.948210D-02
     18  0.000000D+00  0.000000D+00 -0.519168D-01  0.000000D+00  0.000000D+00
     19  0.327076D-02 -0.362154D-01  0.000000D+00 -0.401843D-02 -0.104421D-02
     20 -0.665906D-02 -0.890487D-02  0.000000D+00 -0.105889D-02  0.173344D-02
     21  0.000000D+00  0.000000D+00  0.120375D-02  0.000000D+00  0.000000D+00
     22 -0.259358D-01  0.178909D-01  0.000000D+00  0.102520D-02 -0.206704D-03
     23 -0.166308D-01  0.157713D-01  0.000000D+00 -0.121577D-02  0.670984D-03
     24  0.000000D+00  0.000000D+00 -0.622079D-02  0.000000D+00  0.000000D+00
                6             7             8             9            10 
      6  0.314430D-01
      7  0.000000D+00  0.931679D+00
      8  0.000000D+00 -0.245322D-01  0.876796D+00
      9  0.755382D-02  0.000000D+00  0.000000D+00  0.552855D-01
     10  0.000000D+00 -0.341957D+00 -0.179046D+00  0.000000D+00  0.354824D+00
     11  0.000000D+00 -0.183973D+00 -0.195220D+00  0.000000D+00  0.186099D+00
     12 -0.402298D-02  0.000000D+00  0.000000D+00 -0.996542D-02  0.000000D+00
     13  0.000000D+00 -0.788730D-01  0.296380D-01  0.000000D+00  0.108867D-01
     14  0.000000D+00  0.286291D-01 -0.450449D+00  0.000000D+00  0.595653D-02
     15  0.796641D-02  0.000000D+00  0.000000D+00 -0.167418D-01  0.000000D+00
     16  0.000000D+00 -0.831700D-01 -0.113912D-01  0.000000D+00  0.196640D-02
     17  0.000000D+00  0.113912D-01  0.343323D-01  0.000000D+00  0.536884D-02
     18  0.755382D-02  0.000000D+00  0.000000D+00  0.134786D-01  0.000000D+00
     19  0.000000D+00  0.202195D-02  0.797267D-03  0.000000D+00 -0.115627D-03
     20  0.000000D+00  0.539193D-02  0.475361D-03  0.000000D+00 -0.212197D-03
     21  0.796641D-02  0.000000D+00  0.000000D+00 -0.373249D-02  0.000000D+00
     22  0.000000D+00  0.196640D-02 -0.536884D-02  0.000000D+00 -0.693480D-03
     23  0.000000D+00 -0.681165D-02 -0.159835D-02  0.000000D+00 -0.481359D-03
     24 -0.402298D-02  0.000000D+00  0.000000D+00  0.603849D-02  0.000000D+00
               11            12            13            14            15 
     11  0.187389D+00
     12  0.000000D+00  0.127832D-01
     13 -0.275386D-01  0.000000D+00  0.685270D-01
     14 -0.739853D-02  0.000000D+00 -0.377063D-01  0.464330D+00
     15  0.000000D+00 -0.118367D-02  0.000000D+00  0.000000D+00  0.129965D-01
     16  0.681165D-02  0.000000D+00  0.202195D-02 -0.539193D-02  0.000000D+00
     17 -0.159835D-02  0.000000D+00 -0.797267D-03  0.475361D-03  0.000000D+00
     18  0.000000D+00  0.603849D-02  0.000000D+00  0.000000D+00 -0.373249D-02
     19  0.273107D-03  0.000000D+00 -0.169928D-02  0.582395D-03  0.000000D+00
     20 -0.502612D-03  0.000000D+00 -0.582395D-03  0.716521D-03  0.000000D+00
     21  0.000000D+00 -0.619054D-03  0.000000D+00  0.000000D+00  0.110314D-03
     22  0.481359D-03  0.000000D+00 -0.115627D-03  0.212197D-03  0.000000D+00
     23  0.888034D-03  0.000000D+00 -0.273107D-03 -0.502612D-03  0.000000D+00
     24  0.000000D+00  0.319027D-02  0.000000D+00  0.000000D+00 -0.619054D-03
               16            17            18            19            20 
     16  0.931679D+00
     17  0.245322D-01  0.876796D+00
     18  0.000000D+00  0.000000D+00  0.552855D-01
     19 -0.788730D-01 -0.296380D-01  0.000000D+00  0.685270D-01
     20 -0.286291D-01 -0.450449D+00  0.000000D+00  0.377063D-01  0.464330D+00
     21  0.000000D+00  0.000000D+00 -0.167418D-01  0.000000D+00  0.000000D+00
     22 -0.341957D+00  0.179046D+00  0.000000D+00  0.108867D-01 -0.595653D-02
     23  0.183973D+00 -0.195220D+00  0.000000D+00  0.275386D-01 -0.739853D-02
     24  0.000000D+00  0.000000D+00 -0.996542D-02  0.000000D+00  0.000000D+00
               21            22            23            24 
     21  0.129965D-01
     22  0.000000D+00  0.354824D+00
     23  0.000000D+00 -0.186099D+00  0.187389D+00
     24 -0.118367D-02  0.000000D+00  0.000000D+00  0.127832D-01
 Force constants in internal coordinates: 
                1             2             3             4             5 
      1  0.366765D+00
      2  0.464854D-02  0.634357D+00
      3  0.464854D-02  0.576456D-01  0.634357D+00
      4  0.536842D-03  0.428722D-02 -0.600558D-02  0.475166D+00
      5 -0.162350D-02  0.736787D-02 -0.369004D-02 -0.156168D-02  0.467885D+00
      6 -0.162350D-02 -0.369004D-02  0.736787D-02  0.443497D-03  0.839032D-03
      7  0.536841D-03 -0.600558D-02  0.428722D-02  0.312011D-03  0.443497D-03
      8  0.353092D-02  0.795004D-02 -0.336626D-01 -0.243278D-02  0.375035D-02
      9  0.353092D-02 -0.336626D-01  0.795004D-02  0.699973D-03  0.770836D-03
     10 -0.706184D-02  0.257126D-01  0.257126D-01  0.173281D-02 -0.452119D-02
     11 -0.134798D-02  0.167277D-01  0.381086D-02  0.232853D-02 -0.749768D-02
     12  0.183092D-02  0.717349D-02 -0.100515D-02 -0.654310D-02  0.243376D-02
     13 -0.482945D-03 -0.239012D-01 -0.280571D-02  0.421458D-02  0.506392D-02
     14  0.183092D-02 -0.100515D-02  0.717349D-02 -0.191596D-03  0.102785D-02
     15 -0.134798D-02  0.381086D-02  0.167277D-01  0.202461D-03 -0.779471D-03
     16 -0.482945D-03 -0.280571D-02 -0.239012D-01 -0.108653D-04 -0.248375D-03
[...]
 
     33  33           3                                                1   1 1      11        11 1                                   
     77  55           2                                                7   6 6      43        10 0          7  66 55                 
     00  87           3                                                9   8 0      18        38 3          2  21 41                 
     21  40           3                                                8   8 6      70        33 2          3  70 54                 
 
     XX  XX           X                                                X   X X      XX        XX X          X   X  X                 
     XX  X            X                                                             X         X                                      
     XX  X            X                                                                                                              
     X   X            X                                                                                                              
         X            X                                                                                                              
         X            X                                                                                                              
         X            X                                                                                                              
         X                                                                                                                           
         X                                                                                                                           
         X                                                                                                                           
         X                                                                                                                           
         X                                                                                                                           
         X                                                                                                                           
         X                                                                                                                           
         X                                                                                                                           
         X                                                                                                                           
         X                                                                                                                           
         X                                                                                                                           
         X                                                                                                                           
         X                                                                                                                           
 
 ***** Axes restored to original set *****
 -------------------------------------------------------------------
 Center     Atomic                   Forces (Hartrees/Bohr)
 Number     Number              X              Y              Z
 -------------------------------------------------------------------
      1        6           0.000000000    0.000000157    0.000000000
      2        1           0.000000000   -0.000000352    0.000000000
      3        7          -0.000000406    0.000000127    0.000000000
      4        1           0.000000037   -0.000000071    0.000000000
      5        1           0.000000077    0.000000041    0.000000000
      6        7           0.000000406    0.000000127    0.000000000
      7        1          -0.000000077    0.000000041    0.000000000
      8        1          -0.000000037   -0.000000071    0.000000000
 -------------------------------------------------------------------
 Cartesian Forces:  Max     0.000000406 RMS     0.000000150
 Force constants in Cartesian coordinates: 
                1             2             3             4             5 
      1  0.969806D+00
      2  0.000000D+00  0.848358D+00
      3  0.000000D+00  0.000000D+00  0.168342D+00
      4 -0.623059D-01  0.000000D+00  0.000000D+00  0.691806D-01
      5  0.000000D+00 -0.352477D+00  0.000000D+00  0.000000D+00  0.366631D+00
      6  0.000000D+00  0.000000D+00 -0.544488D-01  0.000000D+00  0.000000D+00
      7 -0.431086D+00  0.169502D+00  0.000000D+00 -0.443973D-03  0.316950D-03
      8  0.154863D+00 -0.254809D+00  0.000000D+00  0.349470D-01 -0.948122D-02
      9  0.000000D+00  0.000000D+00 -0.519264D-01  0.000000D+00  0.000000D+00
     10 -0.259337D-01 -0.178898D-01  0.000000D+00  0.102492D-02  0.206879D-03
     11  0.166286D-01  0.157702D-01  0.000000D+00  0.121586D-02  0.670857D-03
     12  0.000000D+00  0.000000D+00 -0.622208D-02  0.000000D+00  0.000000D+00
     13  0.326931D-02  0.362128D-01  0.000000D+00 -0.401834D-02  0.104423D-02
     14  0.665961D-02 -0.890162D-02  0.000000D+00  0.105846D-02  0.173342D-02
     15  0.000000D+00  0.000000D+00  0.120163D-02  0.000000D+00  0.000000D+00
     16 -0.431086D+00 -0.169502D+00  0.000000D+00 -0.443974D-03 -0.316949D-03
     17 -0.154863D+00 -0.254809D+00  0.000000D+00 -0.349470D-01 -0.948122D-02
     18  0.000000D+00  0.000000D+00 -0.519264D-01  0.000000D+00  0.000000D+00
     19  0.326931D-02 -0.362128D-01  0.000000D+00 -0.401834D-02 -0.104423D-02
     20 -0.665961D-02 -0.890162D-02  0.000000D+00 -0.105846D-02  0.173342D-02
     21  0.000000D+00  0.000000D+00  0.120163D-02  0.000000D+00  0.000000D+00
     22 -0.259337D-01  0.178898D-01  0.000000D+00  0.102492D-02 -0.206879D-03
     23 -0.166286D-01  0.157702D-01  0.000000D+00 -0.121586D-02  0.670857D-03
     24  0.000000D+00  0.000000D+00 -0.622208D-02  0.000000D+00  0.000000D+00
                6             7             8             9            10 
      6  0.314588D-01
      7  0.000000D+00  0.931472D+00
      8  0.000000D+00 -0.244628D-01  0.876713D+00
      9  0.755162D-02  0.000000D+00  0.000000D+00  0.553093D-01
     10  0.000000D+00 -0.341909D+00 -0.179033D+00  0.000000D+00  0.354773D+00
     11  0.000000D+00 -0.183958D+00 -0.195223D+00  0.000000D+00  0.186083D+00
     12 -0.402223D-02  0.000000D+00  0.000000D+00 -0.996770D-02  0.000000D+00
     13  0.000000D+00 -0.788764D-01  0.296443D-01  0.000000D+00  0.108871D-01
     14  0.000000D+00  0.286337D-01 -0.450404D+00  0.000000D+00  0.595721D-02
     15  0.796564D-02  0.000000D+00  0.000000D+00 -0.167445D-01  0.000000D+00
     16  0.000000D+00 -0.831455D-01 -0.113882D-01  0.000000D+00  0.196672D-02
     17  0.000000D+00  0.113882D-01  0.343283D-01  0.000000D+00  0.536851D-02
     18  0.755162D-02  0.000000D+00  0.000000D+00  0.134719D-01  0.000000D+00
     19  0.000000D+00  0.202184D-02  0.797830D-03  0.000000D+00 -0.115602D-03
     20  0.000000D+00  0.539092D-02  0.474837D-03  0.000000D+00 -0.212228D-03
     21  0.796564D-02  0.000000D+00  0.000000D+00 -0.373133D-02  0.000000D+00
     22  0.000000D+00  0.196672D-02 -0.536851D-02  0.000000D+00 -0.693515D-03
     23  0.000000D+00 -0.681134D-02 -0.159869D-02  0.000000D+00 -0.481314D-03
     24 -0.402223D-02  0.000000D+00  0.000000D+00  0.603724D-02  0.000000D+00
               11            12            13            14            15 
     11  0.187393D+00
     12  0.000000D+00  0.127878D-01
     13 -0.275360D-01  0.000000D+00  0.685311D-01
     14 -0.739801D-02  0.000000D+00 -0.377124D-01  0.464282D+00
     15  0.000000D+00 -0.118432D-02  0.000000D+00  0.000000D+00  0.130018D-01
     16  0.681134D-02  0.000000D+00  0.202184D-02 -0.539092D-02  0.000000D+00
     17 -0.159869D-02  0.000000D+00 -0.797830D-03  0.474837D-03  0.000000D+00
     18  0.000000D+00  0.603724D-02  0.000000D+00  0.000000D+00 -0.373133D-02
     19  0.272996D-03  0.000000D+00 -0.169898D-02  0.582136D-03  0.000000D+00
     20 -0.502674D-03  0.000000D+00 -0.582136D-03  0.716408D-03  0.000000D+00
     21  0.000000D+00 -0.618639D-03  0.000000D+00  0.000000D+00  0.109783D-03
     22  0.481314D-03  0.000000D+00 -0.115602D-03  0.212228D-03  0.000000D+00
     23  0.888053D-03  0.000000D+00 -0.272996D-03 -0.502674D-03  0.000000D+00
     24  0.000000D+00  0.318992D-02  0.000000D+00  0.000000D+00 -0.618639D-03
               16            17            18            19            20 
     16  0.931472D+00
     17  0.244628D-01  0.876713D+00
     18  0.000000D+00  0.000000D+00  0.553093D-01
     19 -0.788764D-01 -0.296443D-01  0.000000D+00  0.685311D-01
     20 -0.286337D-01 -0.450404D+00  0.000000D+00  0.377124D-01  0.464282D+00
     21  0.000000D+00  0.000000D+00 -0.167445D-01  0.000000D+00  0.000000D+00
     22 -0.341909D+00  0.179033D+00  0.000000D+00  0.108871D-01 -0.595721D-02
     23  0.183958D+00 -0.195223D+00  0.000000D+00  0.275360D-01 -0.739801D-02
     24  0.000000D+00  0.000000D+00 -0.996770D-02  0.000000D+00  0.000000D+00
               21            22            23            24 
     21  0.130018D-01
     22  0.000000D+00  0.354773D+00
     23  0.000000D+00 -0.186083D+00  0.187393D+00
     24 -0.118432D-02  0.000000D+00  0.000000D+00  0.127878D-01
 Red2BG is reusing G-inverse.
 Force constants in internal coordinates: 
                1             2             3             4             5 
      1  0.366631D+00
      2  0.464838D-02  0.634145D+00
      3  0.464838D-02  0.576295D-01  0.634145D+00
      4  0.536939D-03  0.428604D-02 -0.600550D-02  0.475118D+00
      5 -0.162345D-02  0.736771D-02 -0.368974D-02 -0.156224D-02  0.467839D+00
      6 -0.162345D-02 -0.368974D-02  0.736771D-02  0.443571D-03  0.838905D-03
      7  0.536939D-03 -0.600550D-02  0.428604D-02  0.312072D-03  0.443571D-03
      8  0.353062D-02  0.795555D-02 -0.336542D-01 -0.243232D-02  0.374941D-02
      9  0.353062D-02 -0.336542D-01  0.795555D-02  0.700272D-03  0.770390D-03
     10 -0.706124D-02  0.256987D-01  0.256987D-01  0.173205D-02 -0.451980D-02
     11 -0.134776D-02  0.167277D-01  0.381014D-02  0.232728D-02 -0.749683D-02
     12  0.183090D-02  0.717242D-02 -0.100485D-02 -0.654198D-02  0.243313D-02
     13 -0.483142D-03 -0.239001D-01 -0.280529D-02  0.421470D-02  0.506370D-02
     14  0.183090D-02 -0.100485D-02  0.717242D-02 -0.191560D-03  0.102755D-02
     15 -0.134776D-02  0.381014D-02  0.167277D-01  0.202397D-03 -0.779345D-03
     16 -0.483142D-03 -0.280530D-02 -0.239001D-01 -0.108374D-04 -0.248207D-03
     17  0.000000D+00  0.000000D+00  0.000000D+00  0.000000D+00  0.000000D+00
     18  0.000000D+00  0.000000D+00  0.000000D+00  0.000000D+00  0.000000D+00
     19  0.000000D+00  0.000000D+00  0.000000D+00  0.000000D+00  0.000000D+00
     20  0.000000D+00  0.000000D+00  0.000000D+00  0.000000D+00  0.000000D+00
     21  0.000000D+00  0.000000D+00  0.000000D+00  0.000000D+00  0.000000D+00
     22  0.000000D+00  0.000000D+00  0.000000D+00  0.000000D+00  0.000000D+00
     23  0.000000D+00  0.000000D+00  0.000000D+00  0.000000D+00  0.000000D+00
     24  0.000000D+00  0.000000D+00  0.000000D+00  0.000000D+00  0.000000D+00
                6             7             8             9            10 
      6  0.467839D+00
      7 -0.156224D-02  0.475118D+00
      8  0.770390D-03  0.700272D-03  0.111163D+00
      9  0.374941D-02 -0.243232D-02 -0.359354D-01  0.111163D+00
     10 -0.451980D-02  0.173205D-02 -0.752278D-01 -0.752278D-01  0.150456D+00
     11 -0.779345D-03  0.202397D-03 -0.808943D-02 -0.418709D-02  0.122765D-01
     12  0.102755D-02 -0.191560D-03  0.942503D-02 -0.221369D-03 -0.920366D-02
     13 -0.248207D-03 -0.108372D-04 -0.133560D-02  0.440846D-02 -0.307286D-02
     14  0.243313D-02 -0.654198D-02 -0.221369D-03  0.942503D-02 -0.920366D-02
     15 -0.749683D-02  0.232728D-02 -0.418709D-02 -0.808943D-02  0.122765D-01
     16  0.506370D-02  0.421470D-02  0.440846D-02 -0.133560D-02 -0.307286D-02
     17  0.000000D+00  0.000000D+00  0.000000D+00  0.000000D+00  0.000000D+00
     18  0.000000D+00  0.000000D+00  0.000000D+00  0.000000D+00  0.000000D+00
     19  0.000000D+00  0.000000D+00  0.000000D+00  0.000000D+00  0.000000D+00
     20  0.000000D+00  0.000000D+00  0.000000D+00  0.000000D+00  0.000000D+00
     21  0.000000D+00  0.000000D+00  0.000000D+00  0.000000D+00  0.000000D+00
     22  0.000000D+00  0.000000D+00  0.000000D+00  0.000000D+00  0.000000D+00
     23  0.000000D+00  0.000000D+00  0.000000D+00  0.000000D+00  0.000000D+00
     24  0.000000D+00  0.000000D+00  0.000000D+00  0.000000D+00  0.000000D+00
               11            12            13            14            15 
     11  0.868491D-01
     12 -0.467428D-01  0.846227D-01
     13 -0.401063D-01 -0.378800D-01  0.779863D-01
     14 -0.166410D-02  0.256499D-02 -0.900891D-03  0.846227D-01
     15  0.218224D-02 -0.166410D-02 -0.518135D-03 -0.467428D-01  0.868491D-01
     16 -0.518135D-03 -0.900890D-03  0.141903D-02 -0.378800D-01 -0.401063D-01
     17  0.000000D+00  0.000000D+00  0.000000D+00  0.000000D+00  0.000000D+00
     18  0.000000D+00  0.000000D+00  0.000000D+00  0.000000D+00  0.000000D+00
     19  0.000000D+00  0.000000D+00  0.000000D+00  0.000000D+00  0.000000D+00
     20  0.000000D+00  0.000000D+00  0.000000D+00  0.000000D+00  0.000000D+00
     21  0.000000D+00  0.000000D+00  0.000000D+00  0.000000D+00  0.000000D+00
     22  0.000000D+00  0.000000D+00  0.000000D+00  0.000000D+00  0.000000D+00
     23  0.000000D+00  0.000000D+00  0.000000D+00  0.000000D+00  0.000000D+00
     24  0.000000D+00  0.000000D+00  0.000000D+00  0.000000D+00  0.000000D+00
               16            17            18            19            20 
     16  0.779863D-01
     17  0.000000D+00  0.106179D-01
     18  0.000000D+00  0.464851D-02  0.142846D-01
     19  0.000000D+00  0.392195D-02 -0.611104D-02  0.166958D-01
     20  0.000000D+00 -0.204745D-02  0.352500D-02  0.666276D-02  0.122352D-01
     21  0.000000D+00 -0.427332D-02 -0.596319D-02  0.648622D-02  0.479636D-02
     22  0.000000D+00 -0.402081D-02 -0.427332D-02  0.267515D-02  0.242264D-02
     23  0.000000D+00  0.242264D-02  0.479636D-02 -0.628758D-02 -0.391385D-02
     24  0.000000D+00  0.267515D-02  0.648622D-02 -0.100986D-01 -0.628758D-02
               21            22            23            24 
     21  0.142846D-01
     22  0.464851D-02  0.106179D-01
     23  0.352500D-02 -0.204745D-02  0.122352D-01
     24 -0.611104D-02  0.392195D-02  0.666276D-02  0.166958D-01
 Leave Link  716 at Thu Feb 26 00:29:44 2015, MaxMem= 1073741824 cpu:       0.2
 (Enter /apps/gaussian/g09_c01/g09/l9999.exe)
 1\1\GINC-CX1-49-4-4\Freq\RPBE1PBE\Aug-CC-pVDZ\C1H5N2(1+)\JMF02\26-Feb-
 2015\0\\#p opt(VeryTight,CalcAll,Raman) Integral(Grid=UltraFine) PBE1P
 BE/AUG-cc-pVDZ\\Autjob by noodles.sh | Great noodly basis sets\\1,1\C,
 0.,0.426507782,0.\H,0.,1.5177587054,0.\N,1.1632577578,-0.1763153507,0.
 \H,2.0140607561,0.3710172137,0.\H,1.2619994747,-1.1850721067,0.\N,-1.1
 632577578,-0.1763153507,0.\H,-1.2619994747,-1.1850721067,0.\H,-2.01406
 07561,0.3710172137,0.\\Version=EM64L-G09RevC.01\State=1-A1\HF=-150.233
 7932\RMSD=4.689e-09\RMSF=1.499e-07\ZeroPoint=0.0727734\Thermal=0.07652
 03\Dipole=0.,-0.0812047,0.\DipoleDeriv=1.9218101,0.,0.,0.,0.3843159,0.
 ,0.,0.,0.2850482,0.093914,0.,0.,0.,0.1465951,0.,0.,0.,0.1570257,-1.097
 7637,0.0539056,0.,0.4648488,-0.2783922,0.,0.,0.,-0.3784229,0.3923439,0
 .0551988,0.,0.1065396,0.2152418,0.,0.,0.,0.3280812,0.1975577,-0.060575
 8,0.,-0.1167567,0.297695,0.,0.,0.,0.3293049,-1.0977637,-0.0539056,0.,-
 0.4648488,-0.2783922,0.,0.,0.,-0.3784229,0.1975577,0.0605758,0.,0.1167
 567,0.297695,0.,0.,0.,0.3293049,0.3923439,-0.0551988,0.,-0.1065396,0.2
 152418,0.,0.,0.,0.3280812\Polar=37.0382158,0.,24.8009714,0.,0.,18.2201
 597\PolarDeriv=0.,1.0819825,0.,0.,0.,0.,5.5889272,0.,-3.6831383,0.,0.,
 1.527048,0.,0.,0.,0.,1.3457586,0.,0.,0.8659447,0.,0.,0.,0.,0.8895455,0
 .,7.3705974,0.,0.,1.2673579,0.,0.,0.,0.,0.8597605,0.,2.973963,-1.09656
 16,-0.3871978,0.,0.,1.7134886,-3.5333136,-0.3380777,2.9935989,0.,0.,-0
 .8959437,0.,0.,0.,3.6254181,-0.8248696,0.,6.7725585,1.1623274,1.659255
 6,0.,0.,0.9076942,2.5845481,1.7938002,1.2908649,0.,0.,0.5492772,0.,0.,
 0.,0.3674353,0.2101433,0.,2.0035676,-1.0397294,0.4911543,0.,0.,0.21003
 63,-2.2904706,2.1892381,-6.1281934,0.,0.,-1.0505365,0.,0.,0.,0.0171002
 ,-0.4880333,0.,-2.973963,-1.0965616,0.3871978,0.,0.,-1.7134886,-3.5333
 136,0.3380777,2.9935989,0.,0.,-0.8959437,0.,0.,0.,-3.6254181,-0.824869
 6,0.,-2.0035676,-1.0397294,-0.4911543,0.,0.,-0.2100363,-2.2904706,-2.1
 892381,-6.1281934,0.,0.,-1.0505365,0.,0.,0.,-0.0171002,-0.4880333,0.,-
 6.7725585,1.1623274,-1.6592556,0.,0.,-0.9076942,2.5845481,-1.7938002,1
 .2908649,0.,0.,0.5492772,0.,0.,0.,-0.3674353,0.2101433,0.\HyperPolar=0
 .,30.6662398,0.,-5.7130421,0.,0.,0.,0.,-0.1734582,0.\PG=C02V [C2(C1H1)
 ,SGV(H4N2)]\NImag=0\\0.96980582,0.,0.84835807,0.,0.,0.16834249,-0.0623
 0585,0.,0.,0.06918065,0.,-0.35247694,0.,0.,0.36663083,0.,0.,-0.0544488
 1,0.,0.,0.03145877,-0.43108562,0.16950184,0.,-0.00044397,0.00031695,0.
 ,0.93147167,0.15486297,-0.25480915,0.,0.03494696,-0.00948122,0.,-0.024
 46278,0.87671320,0.,0.,-0.05192639,0.,0.,0.00755162,0.,0.,0.05530926,-
 0.02593367,-0.01788983,0.,0.00102492,0.00020688,0.,-0.34190876,-0.1790
 3257,0.,0.35477279,0.01662860,0.01577020,0.,0.00121586,0.00067086,0.,-
 0.18395750,-0.19522303,0.,0.18608334,0.18739329,0.,0.,-0.00622208,0.,0
 .,-0.00402223,0.,0.,-0.00996770,0.,0.,0.01278780,0.00326931,0.03621282
 ,0.,-0.00401834,0.00104423,0.,-0.07887641,0.02964430,0.,0.01088712,-0.
 02753596,0.,0.06853106,0.00665961,-0.00890162,0.,0.00105846,0.00173342
 ,0.,0.02863371,-0.45040427,0.,0.00595721,-0.00739801,0.,-0.03771243,0.
 46428191,0.,0.,0.00120163,0.,0.,0.00796564,0.,0.,-0.01674454,0.,0.,-0.
 00118432,0.,0.,0.01300178,-0.43108562,-0.16950184,0.,-0.00044397,-0.00
 031695,0.,-0.08314547,-0.01138820,0.,0.00196672,0.00681134,0.,0.002021
 84,-0.00539092,0.,0.93147167,-0.15486297,-0.25480915,0.,-0.03494696,-0
 .00948122,0.,0.01138820,0.03432832,0.,0.00536851,-0.00159869,0.,-0.000
 79783,0.00047484,0.,0.02446278,0.87671320,0.,0.,-0.05192640,0.,0.,0.00
 755162,0.,0.,0.01347185,0.,0.,0.00603724,0.,0.,-0.00373133,0.,0.,0.055
 30926,0.00326931,-0.03621282,0.,-0.00401834,-0.00104423,0.,0.00202184,
 0.00079783,0.,-0.00011560,0.00027300,0.,-0.00169898,0.00058214,0.,-0.0
 7887641,-0.02964430,0.,0.06853106,-0.00665961,-0.00890162,0.,-0.001058
 46,0.00173342,0.,0.00539092,0.00047484,0.,-0.00021223,-0.00050267,0.,-
 0.00058214,0.00071641,0.,-0.02863371,-0.45040427,0.,0.03771243,0.46428
 191,0.,0.,0.00120163,0.,0.,0.00796564,0.,0.,-0.00373133,0.,0.,-0.00061
 864,0.,0.,0.00010978,0.,0.,-0.01674454,0.,0.,0.01300178,-0.02593367,0.
 01788983,0.,0.00102492,-0.00020688,0.,0.00196672,-0.00536851,0.,-0.000
 69352,0.00048131,0.,-0.00011560,0.00021223,0.,-0.34190876,0.17903257,0
 .,0.01088712,-0.00595721,0.,0.35477279,-0.01662860,0.01577020,0.,-0.00
 121586,0.00067086,0.,-0.00681134,-0.00159869,0.,-0.00048131,0.00088805
 ,0.,-0.00027300,-0.00050267,0.,0.18395750,-0.19522303,0.,0.02753596,-0
 .00739801,0.,-0.18608334,0.18739329,0.,0.,-0.00622208,0.,0.,-0.0040222
 3,0.,0.,0.00603724,0.,0.,0.00318992,0.,0.,-0.00061864,0.,0.,-0.0099677
 0,0.,0.,-0.00118432,0.,0.,0.01278780\\0.,-0.00000016,0.,0.,0.00000035,
 0.,0.00000041,-0.00000013,0.,-0.00000004,0.00000007,0.,-0.00000008,-0.
 00000004,0.,-0.00000041,-0.00000013,0.,0.00000008,-0.00000004,0.,0.000
 00004,0.00000007,0.\\\@


 I FIND THAT THE THREE TRULY GREAT TIMES FOR THINKING THOUGHTS
 ARE WHEN I AM STANDING IN THE SHOWER, SITTING ON THE JOHN, OR WALKING.

                                    -- COLIN FLETCHER
 Job cpu time:  0 days  0 hours 12 minutes 42.6 seconds.
 File lengths (MBytes):  RWF=     14 Int=      0 D2E=      0 Chk=      2 Scr=      1
 Normal termination of Gaussian 09 at Thu Feb 26 00:29:44 2015.
