 Entering Gaussian System, Link 0=g03
 Input=FORMA_PBEPBE_AUG-cc-pVTZ.com
 Output=FORMA_PBEPBE_AUG-cc-pVTZ.log
 Initial command:
 /apps/gaussian/g09_c01/g09/l1.exe /tmp/pbs.8910290.cx1b/Gau-17470.inp -scrdir=/tmp/pbs.8910290.cx1b/
 Entering Link 1 = /apps/gaussian/g09_c01/g09/l1.exe PID=     17473.
  
 Copyright (c) 1988,1990,1992,1993,1995,1998,2003,2009,2011,
            Gaussian, Inc.  All Rights Reserved.
  
 This is part of the Gaussian(R) 09 program.  It is based on
 the Gaussian(R) 03 system (copyright 2003, Gaussian, Inc.),
 the Gaussian(R) 98 system (copyright 1998, Gaussian, Inc.),
 the Gaussian(R) 94 system (copyright 1995, Gaussian, Inc.),
 the Gaussian 92(TM) system (copyright 1992, Gaussian, Inc.),
 the Gaussian 90(TM) system (copyright 1990, Gaussian, Inc.),
 the Gaussian 88(TM) system (copyright 1988, Gaussian, Inc.),
 the Gaussian 86(TM) system (copyright 1986, Carnegie Mellon
 University), and the Gaussian 82(TM) system (copyright 1983,
 Carnegie Mellon University). Gaussian is a federally registered
 trademark of Gaussian, Inc.
  
 This software contains proprietary and confidential information,
 including trade secrets, belonging to Gaussian, Inc.
  
 This software is provided under written license and may be
 used, copied, transmitted, or stored only in accord with that
 written license.
  
 The following legend is applicable only to US Government
 contracts under FAR:
  
                    RESTRICTED RIGHTS LEGEND
  
 Use, reproduction and disclosure by the US Government is
 subject to restrictions as set forth in subparagraphs (a)
 and (c) of the Commercial Computer Software - Restricted
 Rights clause in FAR 52.227-19.
  
 Gaussian, Inc.
 340 Quinnipiac St., Bldg. 40, Wallingford CT 06492
  
  
 ---------------------------------------------------------------
 Warning -- This program may not be used in any manner that
 competes with the business of Gaussian, Inc. or will provide
 assistance to any competitor of Gaussian, Inc.  The licensee
 of this program is prohibited from giving any competitor of
 Gaussian, Inc. access to this program.  By using this program,
 the user acknowledges that Gaussian, Inc. is engaged in the
 business of creating and licensing software in the field of
 computational chemistry and represents and warrants to the
 licensee that it is not a competitor of Gaussian, Inc. and that
 it will not use this program in any manner prohibited above.
 ---------------------------------------------------------------
  

 Cite this work as:
 Gaussian 09, Revision C.01,
 M. J. Frisch, G. W. Trucks, H. B. Schlegel, G. E. Scuseria, 
 M. A. Robb, J. R. Cheeseman, G. Scalmani, V. Barone, B. Mennucci, 
 G. A. Petersson, H. Nakatsuji, M. Caricato, X. Li, H. P. Hratchian, 
 A. F. Izmaylov, J. Bloino, G. Zheng, J. L. Sonnenberg, M. Hada, 
 M. Ehara, K. Toyota, R. Fukuda, J. Hasegawa, M. Ishida, T. Nakajima, 
 Y. Honda, O. Kitao, H. Nakai, T. Vreven, J. A. Montgomery, Jr., 
 J. E. Peralta, F. Ogliaro, M. Bearpark, J. J. Heyd, E. Brothers, 
 K. N. Kudin, V. N. Staroverov, T. Keith, R. Kobayashi, J. Normand, 
 K. Raghavachari, A. Rendell, J. C. Burant, S. S. Iyengar, J. Tomasi, 
 M. Cossi, N. Rega, J. M. Millam, M. Klene, J. E. Knox, J. B. Cross, 
 V. Bakken, C. Adamo, J. Jaramillo, R. Gomperts, R. E. Stratmann, 
 O. Yazyev, A. J. Austin, R. Cammi, C. Pomelli, J. W. Ochterski, 
 R. L. Martin, K. Morokuma, V. G. Zakrzewski, G. A. Voth, 
 P. Salvador, J. J. Dannenberg, S. Dapprich, A. D. Daniels, 
 O. Farkas, J. B. Foresman, J. V. Ortiz, J. Cioslowski, 
 and D. J. Fox, Gaussian, Inc., Wallingford CT, 2010.
 
 ******************************************
 Gaussian 09:  EM64L-G09RevC.01 23-Sep-2011
                26-Feb-2015 
 ******************************************
 %Chk=FORMA_PBEPBE_AUG-cc-pVTZ.chk
 %Mem=8Gb
 %nproc=8
 Will use up to    8 processors via shared memory.
 ----------------------------------------------------------------------
 #p opt(VeryTight,CalcAll,Raman) Integral(Grid=UltraFine) PBEPBE/AUG-cc
 -pVTZ
 ----------------------------------------------------------------------
 1/7=1,10=4,14=-1,18=20,19=15,26=3,38=1/1,3;
 2/9=110,12=2,17=6,18=5,40=1/2;
 3/5=16,6=1,7=10,11=2,16=1,25=1,30=1,71=2,74=1009,75=-5/1,2,3;
 4//1;
 5/5=2,38=5/2;
 8/6=4,10=90,11=11/1;
 10/13=10,15=4/2;
 11/6=3,8=1,9=11,15=111,16=1/1,2,10;
 10/6=1/2;
 6/7=2,8=2,9=2,10=2,18=1,28=1/1;
 7/10=1,25=1/1,2,3,16;
 1/7=1,10=4,14=-1,18=20,19=15/3(3);
 2/9=110/2;
 7/8=1,9=1,25=1,44=-1/16;
 99//99;
 2/9=110/2;
 3/5=16,6=1,7=10,11=2,16=1,25=1,30=1,71=2,74=1009,75=-5/1,2,3;
 4/5=5,16=3/1;
 5/5=2,38=5/2;
 8/6=4,10=90,11=11/1;
 10/13=10,15=4/2;
 11/6=3,8=1,9=11,15=111,16=1/1,2,10;
 10/6=1/2;
 7/10=1,25=1/1,2,3,16;
 1/7=1,10=4,14=-1,18=20,19=15/3(-9);
 2/9=110/2;
 6/7=2,8=2,9=2,10=2,18=1,19=2,28=1/1;
 7/8=1,9=1,25=1,44=-1/16;
 99//99;
 Leave Link    1 at Thu Feb 26 00:40:12 2015, MaxMem= 1073741824 cpu:       0.3
 (Enter /apps/gaussian/g09_c01/g09/l101.exe)
 ----------------------------------------------
 Autjob by noodles.sh | Great noodly basis sets
 ----------------------------------------------
 Charge =  1 Multiplicity = 1
 Symbolic Z-Matrix:
 C                     0.        0.42727   0. 
 H                     0.        1.51386   0. 
 N                     1.16818  -0.17499   0. 
 H                     2.0221    0.37151   0. 
 H                     1.27341  -1.18533   0. 
 N                    -1.16818  -0.17499   0. 
 H                    -1.27341  -1.18533   0. 
 H                    -2.0221    0.37151   0. 
 
 NAtoms=      8 NQM=        0 NQMF=       0 NMMI=      8 NMMIF=      0
                NMic=       0 NMicF=      0.
                    Isotopes and Nuclear Properties:
 (Nuclear quadrupole moments (NQMom) in fm**2, nuclear magnetic moments (NMagM)
  in nuclear magnetons)

  Atom         1           2           3           4           5           6           7           8
 IAtWgt=          12           1          14           1           1          14           1           1
 AtmWgt=  12.0000000   1.0078250  14.0030740   1.0078250   1.0078250  14.0030740   1.0078250   1.0078250
 NucSpn=           0           1           2           1           1           2           1           1
 AtZEff=   0.0000000   0.0000000   0.0000000   0.0000000   0.0000000   0.0000000   0.0000000   0.0000000
 NQMom=    0.0000000   0.0000000   2.0440000   0.0000000   0.0000000   2.0440000   0.0000000   0.0000000
 NMagM=    0.0000000   2.7928460   0.4037610   2.7928460   2.7928460   0.4037610   2.7928460   2.7928460
 Leave Link  101 at Thu Feb 26 00:40:12 2015, MaxMem= 1073741824 cpu:       0.9
 (Enter /apps/gaussian/g09_c01/g09/l103.exe)

 GradGradGradGradGradGradGradGradGradGradGradGradGradGradGradGradGradGrad
 Berny optimization.
 Initialization pass.
                           ----------------------------
                           !    Initial Parameters    !
                           ! (Angstroms and Degrees)  !
 --------------------------                            --------------------------
 ! Name  Definition              Value          Derivative Info.                !
 --------------------------------------------------------------------------------
 ! R1    R(1,2)                  1.0866         calculate D2E/DX2 analytically  !
 ! R2    R(1,3)                  1.3143         calculate D2E/DX2 analytically  !
 ! R3    R(1,6)                  1.3143         calculate D2E/DX2 analytically  !
 ! R4    R(3,4)                  1.0138         calculate D2E/DX2 analytically  !
 ! R5    R(3,5)                  1.0158         calculate D2E/DX2 analytically  !
 ! R6    R(6,7)                  1.0158         calculate D2E/DX2 analytically  !
 ! R7    R(6,8)                  1.0138         calculate D2E/DX2 analytically  !
 ! A1    A(2,1,3)              117.2736         calculate D2E/DX2 analytically  !
 ! A2    A(2,1,6)              117.2736         calculate D2E/DX2 analytically  !
 ! A3    A(3,1,6)              125.4529         calculate D2E/DX2 analytically  !
 ! A4    A(1,3,4)              120.1077         calculate D2E/DX2 analytically  !
 ! A5    A(1,3,5)              123.2199         calculate D2E/DX2 analytically  !
 ! A6    A(4,3,5)              116.6724         calculate D2E/DX2 analytically  !
 ! A7    A(1,6,7)              123.2199         calculate D2E/DX2 analytically  !
 ! A8    A(1,6,8)              120.1077         calculate D2E/DX2 analytically  !
 ! A9    A(7,6,8)              116.6724         calculate D2E/DX2 analytically  !
 ! D1    D(2,1,3,4)              0.0            calculate D2E/DX2 analytically  !
 ! D2    D(2,1,3,5)            180.0            calculate D2E/DX2 analytically  !
 ! D3    D(6,1,3,4)            180.0            calculate D2E/DX2 analytically  !
 ! D4    D(6,1,3,5)              0.0            calculate D2E/DX2 analytically  !
 ! D5    D(2,1,6,7)            180.0            calculate D2E/DX2 analytically  !
 ! D6    D(2,1,6,8)              0.0            calculate D2E/DX2 analytically  !
 ! D7    D(3,1,6,7)              0.0            calculate D2E/DX2 analytically  !
 ! D8    D(3,1,6,8)            180.0            calculate D2E/DX2 analytically  !
 --------------------------------------------------------------------------------
 Trust Radius=3.00D-01 FncErr=1.00D-07 GrdErr=1.00D-06
 Number of steps in this run=     34 maximum allowed number of steps=    100.
 GradGradGradGradGradGradGradGradGradGradGradGradGradGradGradGradGradGrad

 Leave Link  103 at Thu Feb 26 00:40:12 2015, MaxMem= 1073741824 cpu:       0.0
 (Enter /apps/gaussian/g09_c01/g09/l202.exe)
                          Input orientation:                          
 ---------------------------------------------------------------------
 Center     Atomic      Atomic             Coordinates (Angstroms)
 Number     Number       Type             X           Y           Z
 ---------------------------------------------------------------------
      1          6           0        0.000000    0.427270    0.000000
      2          1           0        0.000000    1.513864    0.000000
      3          7           0        1.168180   -0.174990    0.000000
      4          1           0        2.022103    0.371511    0.000000
      5          1           0        1.273414   -1.185325    0.000000
      6          7           0       -1.168180   -0.174990    0.000000
      7          1           0       -1.273414   -1.185325    0.000000
      8          1           0       -2.022103    0.371511    0.000000
 ---------------------------------------------------------------------
                    Distance matrix (angstroms):
                    1          2          3          4          5
     1  C    0.000000
     2  H    1.086594   0.000000
     3  N    1.314291   2.053502   0.000000
     4  H    2.022872   2.322471   1.013828   0.000000
     5  H    2.054762   2.984494   1.015801   1.727505   0.000000
     6  N    1.314291   2.053502   2.336360   3.236753   2.642377
     7  H    2.054762   2.984494   2.642377   3.644746   2.546828
     8  H    2.022872   2.322471   3.236753   4.044206   3.644746
                    6          7          8
     6  N    0.000000
     7  H    1.015801   0.000000
     8  H    1.013828   1.727505   0.000000
 Stoichiometry    CH5N2(1+)
 Framework group  C2V[C2(CH),SGV(H4N2)]
 Deg. of freedom     7
 Full point group                 C2V     NOp   4
 Largest Abelian subgroup         C2V     NOp   4
 Largest concise Abelian subgroup C2      NOp   2
                         Standard orientation:                         
 ---------------------------------------------------------------------
 Center     Atomic      Atomic             Coordinates (Angstroms)
 Number     Number       Type             X           Y           Z
 ---------------------------------------------------------------------
      1          6           0        0.000000    0.000000    0.427270
      2          1           0        0.000000    0.000000    1.513864
      3          7           0        0.000000    1.168180   -0.174990
      4          1           0        0.000000    2.022103    0.371511
      5          1           0        0.000000    1.273414   -1.185325
      6          7           0        0.000000   -1.168180   -0.174990
      7          1           0        0.000000   -1.273414   -1.185325
      8          1           0        0.000000   -2.022103    0.371511
 ---------------------------------------------------------------------
 Rotational constants (GHZ):     59.6815563     10.1627081      8.6839806
 Leave Link  202 at Thu Feb 26 00:40:12 2015, MaxMem= 1073741824 cpu:       0.0
 (Enter /apps/gaussian/g09_c01/g09/l301.exe)
 Standard basis: Aug-CC-pVTZ (5D, 7F)
 Ernie: Thresh=  0.10000D-02 Tol=  0.10000D-05 Strict=F.
 Ernie:  9 primitive shells out of 145 were deleted.
 There are    92 symmetry adapted basis functions of A1  symmetry.
 There are    37 symmetry adapted basis functions of A2  symmetry.
 There are    46 symmetry adapted basis functions of B1  symmetry.
 There are    78 symmetry adapted basis functions of B2  symmetry.
 Integral buffers will be    131072 words long.
 Raffenetti 2 integral format.
 Two-electron integral symmetry is turned on.
   253 basis functions,   351 primitive gaussians,   290 cartesian basis functions
    12 alpha electrons       12 beta electrons
       nuclear repulsion energy        79.4241064683 Hartrees.
 IExCor= 1009 DFT=T Ex=PBE Corr=PBE ExCW=0 ScaHFX=  0.000000
 ScaDFX=  1.000000  1.000000  1.000000  1.000000 ScalE2=  1.000000  1.000000
 IRadAn=      5 IRanWt=     -1 IRanGd=            0 ICorTp=0
 NAtoms=    8 NActive=    8 NUniq=    5 SFac= 2.56D+00 NAtFMM=   60 NAOKFM=F Big=F
 Leave Link  301 at Thu Feb 26 00:40:12 2015, MaxMem= 1073741824 cpu:       0.3
 (Enter /apps/gaussian/g09_c01/g09/l302.exe)
 NPDir=0 NMtPBC=     1 NCelOv=     1 NCel=       1 NClECP=     1 NCelD=      1
         NCelK=      1 NCelE2=     1 NClLst=     1 CellRange=     0.0.
 One-electron integrals computed using PRISM.
 One-electron integral symmetry used in STVInt
 NBasis=   253 RedAO= T  NBF=    92    37    46    78
 NBsUse=   253 1.00D-06 NBFU=    92    37    46    78
 Precomputing XC quadrature grid using
 IXCGrd= 2 IRadAn=           5 IRanWt=          -1 IRanGd=           0 AccXCQ= 0.00D+00.
 NRdTot=     686 NPtTot=      184860 NUsed=      189779 NTot=      189811
 NSgBfM=   290   290   290   290   290 NAtAll=     8     8.
 Leave Link  302 at Thu Feb 26 00:40:12 2015, MaxMem= 1073741824 cpu:       1.7
 (Enter /apps/gaussian/g09_c01/g09/l303.exe)
 DipDrv:  MaxL=1.
 Leave Link  303 at Thu Feb 26 00:40:12 2015, MaxMem= 1073741824 cpu:       0.3
 (Enter /apps/gaussian/g09_c01/g09/l401.exe)
 Harris functional with IExCor= 1009 diagonalized for initial guess.
 ExpMin= 2.53D-02 ExpMax= 1.14D+04 ExpMxC= 3.89D+02 IAcc=3 IRadAn=         5 AccDes= 0.00D+00
 HarFok:  IExCor= 1009 AccDes= 0.00D+00 IRadAn=         5 IDoV= 1
 ScaDFX=  1.000000  1.000000  1.000000  1.000000
 FoFCou: FMM=F IPFlag=           0 FMFlag=      100000 FMFlg1=           0
         NFxFlg=           0 DoJE=T BraDBF=F KetDBF=T FulRan=T
         Omega=  0.000000  0.000000  1.000000  0.000000  0.000000 ICntrl=     500 IOpCl=  0
         NMat0=    1 NMatS0=    1 NMatT0=    0 NMatD0=    1 NMtDS0=    0 NMtDT0=    0
         I1Cent=           4 NGrid=           0.
 Petite list used in FoFCou.
 Harris En= -150.344882330593    
 Initial guess orbital symmetries:
       Occupied  (B2) (A1) (A1) (A1) (B2) (A1) (A1) (B2) (B2) (A1)
                 (B1) (A2)
       Virtual   (B1) (A1) (B2) (A1) (B2) (A1) (B1) (A1) (B2) (A1)
                 (A1) (A2) (B2) (B1) (A1) (B2) (A1) (B2) (B1) (A1)
                 (A1) (B2) (A2) (B2) (A1) (B1) (A1) (B2) (A1) (B2)
                 (B1) (A1) (A2) (A1) (B1) (A1) (B2) (A1) (A2) (B2)
                 (A1) (B2) (B2) (B1) (A1) (B2) (A2) (A1) (B2) (B1)
                 (B1) (A2) (A1) (B2) (A1) (B2) (A1) (A1) (A1) (B1)
                 (B2) (A1) (A2) (B2) (B1) (A1) (B2) (A2) (A1) (B1)
                 (A2) (A1) (B1) (B2) (B2) (A1) (B2) (B1) (A1) (A2)
                 (A1) (B2) (B1) (A2) (B1) (A1) (B2) (A1) (A1) (A2)
                 (B2) (B2) (A2) (B2) (B1) (A1) (A2) (A1) (B2) (A1)
                 (B1) (B2) (B1) (A1) (B2) (A2) (A1) (B2) (B1) (B2)
                 (A1) (A1) (A2) (A1) (B1) (B2) (B2) (B1) (A2) (A1)
                 (B2) (B1) (A1) (A1) (A2) (A1) (B2) (B2) (A1) (A1)
                 (A2) (B1) (B2) (B1) (A1) (B2) (B2) (A2) (B1) (B2)
                 (A1) (B2) (A2) (A1) (A1) (B2) (B1) (B2) (A1) (A1)
                 (B2) (B1) (A1) (A2) (B2) (B1) (B1) (A2) (A1) (A1)
                 (B2) (A1) (A1) (A2) (B2) (B1) (B2) (A1) (A2) (A1)
                 (B2) (A1) (B1) (A2) (B1) (A1) (A2) (B1) (A2) (B2)
                 (B2) (B1) (A1) (A1) (A2) (B2) (A1) (B2) (B1) (B2)
                 (A1) (B1) (A1) (A2) (B1) (A1) (B2) (B2) (A2) (A1)
                 (B2) (A1) (B1) (B2) (B2) (A2) (A1) (B2) (B1) (B2)
                 (A1) (B1) (A2) (A1) (B1) (A1) (B2) (A1) (A2) (B2)
                 (A2) (B1) (B2) (A2) (A1) (B1) (B2) (A1) (B2) (A1)
                 (B2) (A1) (A1) (A1) (B2) (B2) (A1) (B2) (A1) (B2)
                 (A1)
 The electronic state of the initial guess is 1-A1.
 Leave Link  401 at Thu Feb 26 00:40:13 2015, MaxMem= 1073741824 cpu:       3.8
 (Enter /apps/gaussian/g09_c01/g09/l502.exe)
 Closed shell SCF:
 Requested convergence on RMS density matrix=1.00D-08 within 128 cycles.
 Requested convergence on MAX density matrix=1.00D-06.
 Requested convergence on             energy=1.00D-06.
 No special actions if energy rises.
 Using DIIS extrapolation, IDIIS=  1040.
 Integral symmetry usage will be decided dynamically.
       189694 words used for storage of precomputed grid.
 Keep J ints in memory in canonical form, NReq=903016134.
 IEnd=      465070 IEndB=      465070 NGot=  1073741824 MDV=   183147647
 LenX=   183147647 LenY=   183063106
 Symmetry not used in FoFDir.
 MinBra= 0 MaxBra= 3 Meth= 1.
 IRaf=       0 NMat=   1 IRICut=       1 DoRegI=T DoRafI=F ISym2E= 0 JSym2E=0.

 Cycle   1  Pass 1  IDiag  1:
 E= -150.221614948115    
 DIIS: error= 2.67D-02 at cycle   1 NSaved=   1.
 NSaved= 1 IEnMin= 1 EnMin= -150.221614948115     IErMin= 1 ErrMin= 2.67D-02
 ErrMax= 2.67D-02 EMaxC= 1.00D-01 BMatC= 6.16D-02 BMatP= 6.16D-02
 IDIUse=3 WtCom= 7.33D-01 WtEn= 2.67D-01
 Coeff-Com:  0.100D+01
 Coeff-En:   0.100D+01
 Coeff:      0.100D+01
 Gap=     0.160 Goal=   None    Shift=    0.000
 GapD=    0.160 DampG=1.000 DampE=0.500 DampFc=0.5000 IDamp=-1.
 Damping current iteration by 5.00D-01
 RMSDP=1.10D-03 MaxDP=4.14D-02              OVMax= 1.57D-01

 Cycle   2  Pass 1  IDiag  1:
 E= -150.230457060845     Delta-E=       -0.008842112731 Rises=F Damp=T
 DIIS: error= 6.94D-03 at cycle   2 NSaved=   2.
 NSaved= 2 IEnMin= 2 EnMin= -150.230457060845     IErMin= 2 ErrMin= 6.94D-03
 ErrMax= 6.94D-03 EMaxC= 1.00D-01 BMatC= 7.98D-03 BMatP= 6.16D-02
 IDIUse=3 WtCom= 9.31D-01 WtEn= 6.94D-02
 Coeff-Com:  0.210D+00 0.790D+00
 Coeff-En:   0.396D+00 0.604D+00
 Coeff:      0.223D+00 0.777D+00
 Gap=     0.210 Goal=   None    Shift=    0.000
 RMSDP=3.89D-04 MaxDP=1.82D-02 DE=-8.84D-03 OVMax= 1.28D-01

 Cycle   3  Pass 1  IDiag  1:
 E= -150.259772933114     Delta-E=       -0.029315872269 Rises=F Damp=F
 DIIS: error= 4.83D-03 at cycle   3 NSaved=   3.
 NSaved= 3 IEnMin= 3 EnMin= -150.259772933114     IErMin= 3 ErrMin= 4.83D-03
 ErrMax= 4.83D-03 EMaxC= 1.00D-01 BMatC= 2.15D-03 BMatP= 7.98D-03
 IDIUse=3 WtCom= 9.52D-01 WtEn= 4.83D-02
 Coeff-Com:  0.206D-01 0.335D+00 0.645D+00
 Coeff-En:   0.000D+00 0.000D+00 0.100D+01
 Coeff:      0.196D-01 0.318D+00 0.662D+00
 Gap=     0.203 Goal=   None    Shift=    0.000
 RMSDP=1.36D-04 MaxDP=8.89D-03 DE=-2.93D-02 OVMax= 3.36D-02

 Cycle   4  Pass 1  IDiag  1:
 E= -150.261132705452     Delta-E=       -0.001359772338 Rises=F Damp=F
 DIIS: error= 3.18D-03 at cycle   4 NSaved=   4.
 NSaved= 4 IEnMin= 4 EnMin= -150.261132705452     IErMin= 4 ErrMin= 3.18D-03
 ErrMax= 3.18D-03 EMaxC= 1.00D-01 BMatC= 6.92D-04 BMatP= 2.15D-03
 IDIUse=3 WtCom= 9.68D-01 WtEn= 3.18D-02
 Coeff-Com: -0.150D-01 0.798D-01 0.406D+00 0.529D+00
 Coeff-En:   0.000D+00 0.000D+00 0.272D+00 0.728D+00
 Coeff:     -0.146D-01 0.773D-01 0.402D+00 0.535D+00
 Gap=     0.206 Goal=   None    Shift=    0.000
 RMSDP=5.30D-05 MaxDP=3.14D-03 DE=-1.36D-03 OVMax= 1.14D-02

 Cycle   5  Pass 1  IDiag  1:
 E= -150.261799563133     Delta-E=       -0.000666857681 Rises=F Damp=F
 DIIS: error= 3.15D-04 at cycle   5 NSaved=   5.
 NSaved= 5 IEnMin= 5 EnMin= -150.261799563133     IErMin= 5 ErrMin= 3.15D-04
 ErrMax= 3.15D-04 EMaxC= 1.00D-01 BMatC= 1.03D-05 BMatP= 6.92D-04
 IDIUse=3 WtCom= 9.97D-01 WtEn= 3.15D-03
 Coeff-Com: -0.573D-02 0.225D-01 0.158D+00 0.236D+00 0.589D+00
 Coeff-En:   0.000D+00 0.000D+00 0.000D+00 0.000D+00 0.100D+01
 Coeff:     -0.571D-02 0.224D-01 0.158D+00 0.235D+00 0.591D+00
 Gap=     0.206 Goal=   None    Shift=    0.000
 RMSDP=7.40D-06 MaxDP=2.44D-04 DE=-6.67D-04 OVMax= 9.02D-04

 Cycle   6  Pass 1  IDiag  1:
 E= -150.261809161532     Delta-E=       -0.000009598400 Rises=F Damp=F
 DIIS: error= 2.87D-05 at cycle   6 NSaved=   6.
 NSaved= 6 IEnMin= 6 EnMin= -150.261809161532     IErMin= 6 ErrMin= 2.87D-05
 ErrMax= 2.87D-05 EMaxC= 1.00D-01 BMatC= 1.18D-07 BMatP= 1.03D-05
 IDIUse=1 WtCom= 1.00D+00 WtEn= 0.00D+00
 Coeff-Com: -0.808D-03 0.353D-02 0.337D-01 0.523D-01 0.165D+00 0.747D+00
 Coeff:     -0.808D-03 0.353D-02 0.337D-01 0.523D-01 0.165D+00 0.747D+00
 Gap=     0.206 Goal=   None    Shift=    0.000
 RMSDP=7.55D-07 MaxDP=3.27D-05 DE=-9.60D-06 OVMax= 8.25D-05

 Cycle   7  Pass 1  IDiag  1:
 E= -150.261809265034     Delta-E=       -0.000000103502 Rises=F Damp=F
 DIIS: error= 3.86D-06 at cycle   7 NSaved=   7.
 NSaved= 7 IEnMin= 7 EnMin= -150.261809265034     IErMin= 7 ErrMin= 3.86D-06
 ErrMax= 3.86D-06 EMaxC= 1.00D-01 BMatC= 1.83D-09 BMatP= 1.18D-07
 IDIUse=1 WtCom= 1.00D+00 WtEn= 0.00D+00
 Coeff-Com:  0.705D-04-0.642D-04 0.192D-02 0.332D-02 0.133D-01 0.132D+00
 Coeff-Com:  0.849D+00
 Coeff:      0.705D-04-0.642D-04 0.192D-02 0.332D-02 0.133D-01 0.132D+00
 Coeff:      0.849D+00
 Gap=     0.206 Goal=   None    Shift=    0.000
 RMSDP=1.18D-07 MaxDP=5.11D-06 DE=-1.04D-07 OVMax= 1.15D-05

 Cycle   8  Pass 1  IDiag  1:
 E= -150.261809266598     Delta-E=       -0.000000001565 Rises=F Damp=F
 DIIS: error= 4.10D-07 at cycle   8 NSaved=   8.
 NSaved= 8 IEnMin= 8 EnMin= -150.261809266598     IErMin= 8 ErrMin= 4.10D-07
 ErrMax= 4.10D-07 EMaxC= 1.00D-01 BMatC= 1.74D-11 BMatP= 1.83D-09
 IDIUse=1 WtCom= 1.00D+00 WtEn= 0.00D+00
 Coeff-Com:  0.126D-04-0.404D-04-0.888D-04-0.175D-03 0.192D-03 0.848D-02
 Coeff-Com:  0.116D+00 0.875D+00
 Coeff:      0.126D-04-0.404D-04-0.888D-04-0.175D-03 0.192D-03 0.848D-02
 Coeff:      0.116D+00 0.875D+00
 Gap=     0.206 Goal=   None    Shift=    0.000
 RMSDP=1.29D-08 MaxDP=4.87D-07 DE=-1.56D-09 OVMax= 1.38D-06

 Cycle   9  Pass 1  IDiag  1:
 E= -150.261809266612     Delta-E=       -0.000000000014 Rises=F Damp=F
 DIIS: error= 4.40D-08 at cycle   9 NSaved=   9.
 NSaved= 9 IEnMin= 9 EnMin= -150.261809266612     IErMin= 9 ErrMin= 4.40D-08
 ErrMax= 4.40D-08 EMaxC= 1.00D-01 BMatC= 2.83D-13 BMatP= 1.74D-11
 IDIUse=1 WtCom= 1.00D+00 WtEn= 0.00D+00
 Coeff-Com:  0.141D-05-0.746D-05-0.278D-04-0.625D-04-0.462D-04 0.874D-03
 Coeff-Com:  0.197D-01 0.214D+00 0.765D+00
 Coeff:      0.141D-05-0.746D-05-0.278D-04-0.625D-04-0.462D-04 0.874D-03
 Coeff:      0.197D-01 0.214D+00 0.765D+00
 Gap=     0.206 Goal=   None    Shift=    0.000
 RMSDP=1.66D-09 MaxDP=8.23D-08 DE=-1.36D-11 OVMax= 2.80D-07

 SCF Done:  E(RPBE-PBE) =  -150.261809267     A.U. after    9 cycles
             Convg  =    0.1661D-08             -V/T =  2.0061
 KE= 1.493549807075D+02 PE=-5.026772591970D+02 EE= 1.236363627546D+02
 Leave Link  502 at Thu Feb 26 00:40:39 2015, MaxMem= 1073741824 cpu:     213.2
 (Enter /apps/gaussian/g09_c01/g09/l801.exe)
 Range of M.O.s used for correlation:     1   253
 NBasis=   253 NAE=    12 NBE=    12 NFC=     0 NFV=     0
 NROrb=    253 NOA=    12 NOB=    12 NVA=   241 NVB=   241

 **** Warning!!: The largest alpha MO coefficient is  0.47562103D+02

 Leave Link  801 at Thu Feb 26 00:40:39 2015, MaxMem= 1073741824 cpu:       0.1
 (Enter /apps/gaussian/g09_c01/g09/l1002.exe)
 Minotr:  Closed shell wavefunction.
          Direct CPHF calculation.
          Differentiating once with respect to electric field.
                with respect to dipole field.
          Electric field/nuclear overlap derivatives assumed to be zero.
          Using symmetry in CPHF.
          Requested convergence is 1.0D-08 RMS, and 1.0D-07 maximum.
          Secondary convergence is 1.0D-12 RMS, and 1.0D-12 maximum.
          NewPWx=F KeepS1=T KeepF1=T KeepIn=T MapXYZ=F SortEE=F KeepMc=T.
          MDV=    1073741756 using IRadAn=       1.
 Generate precomputed XC quadrature information.
          Keep J ints in memory in canonical form, NReq=892175092.
 Symmetry not used in FoFDir.
 MinBra= 0 MaxBra= 3 Meth= 1.
 IRaf=       0 NMat=   1 IRICut=       1 DoRegI=T DoRafI=F ISym2E= 0 JSym2E=0.
          Solving linear equations simultaneously, MaxMat=       0.
          There are     3 degrees of freedom in the 1st order CPHF.  IDoFFX=0.
      3 vectors produced by pass  0 Test12= 9.64D-14 3.33D-08 XBig12= 6.11D+01 6.94D+00.
 AX will form     3 AO Fock derivatives at one time.
      3 vectors produced by pass  1 Test12= 9.64D-14 3.33D-08 XBig12= 3.63D+01 2.01D+00.
      3 vectors produced by pass  2 Test12= 9.64D-14 3.33D-08 XBig12= 3.18D+00 4.50D-01.
      3 vectors produced by pass  3 Test12= 9.64D-14 3.33D-08 XBig12= 9.20D-02 6.70D-02.
      3 vectors produced by pass  4 Test12= 9.64D-14 3.33D-08 XBig12= 1.17D-02 2.89D-02.
      3 vectors produced by pass  5 Test12= 9.64D-14 3.33D-08 XBig12= 2.05D-03 1.05D-02.
      3 vectors produced by pass  6 Test12= 9.64D-14 3.33D-08 XBig12= 5.09D-05 2.09D-03.
      3 vectors produced by pass  7 Test12= 9.64D-14 3.33D-08 XBig12= 9.50D-07 1.59D-04.
      2 vectors produced by pass  8 Test12= 9.64D-14 3.33D-08 XBig12= 2.84D-09 1.11D-05.
      2 vectors produced by pass  9 Test12= 9.64D-14 3.33D-08 XBig12= 9.15D-11 2.40D-06.
      1 vectors produced by pass 10 Test12= 9.64D-14 3.33D-08 XBig12= 1.18D-12 2.17D-07.
 Inverted reduced A of dimension    29 with in-core refinement.
 End of Minotr Frequency-dependent properties file   721 does not exist.
 End of Minotr Frequency-dependent properties file   722 does not exist.
 Leave Link 1002 at Thu Feb 26 00:41:41 2015, MaxMem= 1073741824 cpu:     488.6
 (Enter /apps/gaussian/g09_c01/g09/l1101.exe)
 Using compressed storage, NAtomX=     8.
 Will process   9 centers per pass.
 Leave Link 1101 at Thu Feb 26 00:41:41 2015, MaxMem= 1073741824 cpu:       2.0
 (Enter /apps/gaussian/g09_c01/g09/l1102.exe)
 Symmetrizing basis deriv contribution to polar:
 IMax=3 JMax=2 DiffMx= 0.00D+00
 Leave Link 1102 at Thu Feb 26 00:41:41 2015, MaxMem= 1073741824 cpu:       0.3
 (Enter /apps/gaussian/g09_c01/g09/l1110.exe)
 Forming Gx(P) for the SCF density, NAtomX=     8.
 Integral derivatives from FoFDir/FoFCou, PRISM(SPDF).
 Do as many integral derivatives as possible in FoFDir.
 G2DrvN: MDV=    1073741656.
 G2DrvN: will do     9 centers at a time, making    1 passes doing MaxLOS=3.
 Calling FoFCou, ICntrl=  3507 FMM=F I1Cent=   0 AccDes= 0.00D+00.
 FoFCou: FMM=F IPFlag=           0 FMFlag=      100000 FMFlg1=           0
         NFxFlg=           0 DoJE=F BraDBF=F KetDBF=F FulRan=T
         Omega=  0.000000  0.000000  1.000000  0.000000  0.000000 ICntrl=    3507 IOpCl=  0
         NMat0=    1 NMatS0=    1 NMatT0=    0 NMatD0=    4 NMtDS0=    3 NMtDT0=    0
         I1Cent=           0 NGrid=           0.
 Petite list used in FoFCou.
 FoFDir/FoFCou used for L=0 through L=3.
 End of G2Drv Frequency-dependent properties file   721 does not exist.
 End of G2Drv Frequency-dependent properties file   722 does not exist.
 Leave Link 1110 at Thu Feb 26 00:42:16 2015, MaxMem= 1073741824 cpu:     279.5
 (Enter /apps/gaussian/g09_c01/g09/l1002.exe)
 Minotr:  Closed shell wavefunction.
          IDoAtm=11111111
          Direct CPHF calculation.
          Differentiating once with respect to electric field.
                with respect to dipole field.
          Differentiating once with respect to nuclear coordinates.
          Using symmetry in CPHF.
          Requested convergence is 1.0D-08 RMS, and 1.0D-07 maximum.
          Secondary convergence is 1.0D-12 RMS, and 1.0D-12 maximum.
          NewPWx=T KeepS1=F KeepF1=F KeepIn=T MapXYZ=F SortEE=F KeepMc=T.
          MDV=    1073741740 using IRadAn=       1.
 Generate precomputed XC quadrature information.
          Keep J ints in memory in canonical form, NReq=892175260.
 Symmetry not used in FoFDir.
 MinBra= 0 MaxBra= 3 Meth= 1.
 IRaf=       0 NMat=   1 IRICut=       1 DoRegI=T DoRafI=F ISym2E= 0 JSym2E=0.
          Solving linear equations simultaneously, MaxMat=       0.
          There are    18 degrees of freedom in the 1st order CPHF.  IDoFFX=4.
 Will reuse    3 saved solutions.
     15 vectors produced by pass  0 Test12= 1.61D-14 5.56D-09 XBig12= 1.70D-01 1.49D-01.
 AX will form    15 AO Fock derivatives at one time.
     15 vectors produced by pass  1 Test12= 1.61D-14 5.56D-09 XBig12= 9.43D-02 1.70D-01.
     15 vectors produced by pass  2 Test12= 1.61D-14 5.56D-09 XBig12= 1.01D-03 7.67D-03.
     15 vectors produced by pass  3 Test12= 1.61D-14 5.56D-09 XBig12= 6.73D-06 4.36D-04.
     15 vectors produced by pass  4 Test12= 1.61D-14 5.56D-09 XBig12= 1.70D-08 1.86D-05.
     10 vectors produced by pass  5 Test12= 1.61D-14 5.56D-09 XBig12= 1.20D-11 4.98D-07.
      2 vectors produced by pass  6 Test12= 1.61D-14 5.56D-09 XBig12= 2.79D-14 3.12D-08.
 Inverted reduced A of dimension    87 with in-core refinement.
 FullF1:  Do perturbations    1 to    18.
 Isotropic polarizability for W=    0.000000       27.49 Bohr**3.
 FullF1:  Do perturbations    1 to     6.
 End of Minotr Frequency-dependent properties file   721 does not exist.
 End of Minotr Frequency-dependent properties file   722 does not exist.
 Leave Link 1002 at Thu Feb 26 00:43:46 2015, MaxMem= 1073741824 cpu:     717.4
 (Enter /apps/gaussian/g09_c01/g09/l601.exe)
 Copying SCF densities to generalized density rwf, IOpCl= 0 IROHF=0.

 **********************************************************************

            Population analysis using the SCF density.

 **********************************************************************

 Orbital symmetries:
       Occupied  (A1) (B2) (A1) (A1) (B2) (A1) (A1) (B2) (B2) (A1)
                 (B1) (A2)
       Virtual   (B1) (A1) (A1) (B2) (B2) (A1) (B1) (A1) (B2) (A1)
                 (A2) (B1) (A1) (B2) (A1) (A1) (B2) (B2) (A1) (B1)
                 (A2) (A1) (B2) (B2) (B1) (A1) (A1) (B1) (A1) (B2)
                 (B2) (A2) (A1) (A1) (B1) (A2) (A1) (B2) (A1) (B2)
                 (A1) (B2) (B2) (B1) (A1) (A2) (B2) (B1) (A1) (B2)
                 (B1) (A2) (A1) (A1) (B2) (B2) (A1) (A1) (A1) (B1)
                 (A2) (B2) (A1) (B2) (B1) (A1) (A2) (B2) (A1) (B1)
                 (A2) (B1) (B2) (A1) (B2) (A1) (B2) (B1) (A1) (A2)
                 (A1) (B1) (B2) (A2) (B1) (A1) (B2) (A1) (A2) (A1)
                 (B2) (B2) (A2) (B2) (B1) (A1) (A2) (B2) (A1) (A1)
                 (B1) (B1) (B2) (A1) (B2) (A2) (A1) (B2) (B1) (B2)
                 (A1) (A1) (A2) (A1) (B1) (B2) (B2) (A2) (B1) (A1)
                 (B1) (B2) (A1) (A1) (A2) (A1) (B2) (B2) (A1) (A1)
                 (A2) (B1) (B2) (B1) (A1) (B2) (B2) (A2) (B1) (B2)
                 (A1) (B2) (A2) (A1) (A1) (B2) (B1) (B2) (A1) (A1)
                 (B2) (B1) (A1) (A2) (B2) (B1) (B1) (A1) (A2) (A1)
                 (B2) (A1) (A1) (B2) (A2) (B1) (B2) (A1) (A2) (A1)
                 (B2) (A1) (A2) (B1) (B1) (A2) (A1) (B1) (A2) (B2)
                 (B2) (B1) (A1) (A2) (A1) (B2) (A1) (B1) (B2) (B2)
                 (A1) (B1) (A1) (A2) (B1) (A1) (B2) (B2) (A2) (A1)
                 (B2) (B1) (A1) (B2) (B2) (A1) (A2) (B2) (B1) (B2)
                 (A1) (B1) (A2) (A1) (B1) (A1) (B2) (A1) (A2) (A2)
                 (B2) (B1) (B2) (A2) (A1) (B1) (B2) (A1) (B2) (A1)
                 (B2) (A1) (A1) (A1) (B2) (B2) (A1) (B2) (A1) (B2)
                 (A1)
 The electronic state is 1-A1.
 Alpha  occ. eigenvalues --  -14.25929 -14.25929 -10.22018  -1.13659  -1.05683
 Alpha  occ. eigenvalues --   -0.83505  -0.76269  -0.74049  -0.67687  -0.61700
 Alpha  occ. eigenvalues --   -0.59679  -0.47877
 Alpha virt. eigenvalues --   -0.27273  -0.19960  -0.17391  -0.17028  -0.11753
 Alpha virt. eigenvalues --   -0.11706  -0.11359  -0.10019  -0.07738  -0.06965
 Alpha virt. eigenvalues --   -0.06175  -0.06006  -0.05139  -0.03552  -0.03338
 Alpha virt. eigenvalues --   -0.01819  -0.01656   0.00012   0.00685   0.00910
 Alpha virt. eigenvalues --    0.03075   0.03167   0.03677   0.05850   0.06200
 Alpha virt. eigenvalues --    0.06332   0.10150   0.11144   0.11984   0.12325
 Alpha virt. eigenvalues --    0.12779   0.12826   0.12974   0.13469   0.15155
 Alpha virt. eigenvalues --    0.16899   0.17083   0.17993   0.18896   0.19516
 Alpha virt. eigenvalues --    0.20357   0.21224   0.23212   0.24072   0.25641
 Alpha virt. eigenvalues --    0.30765   0.31247   0.31555   0.32748   0.33684
 Alpha virt. eigenvalues --    0.34371   0.36857   0.37449   0.39253   0.39400
 Alpha virt. eigenvalues --    0.39953   0.42961   0.48278   0.51409   0.51638
 Alpha virt. eigenvalues --    0.53836   0.54133   0.54570   0.55680   0.56961
 Alpha virt. eigenvalues --    0.58234   0.59091   0.59268   0.62292   0.62774
 Alpha virt. eigenvalues --    0.64285   0.66567   0.66922   0.67750   0.68596
 Alpha virt. eigenvalues --    0.69851   0.71016   0.71221   0.73997   0.75782
 Alpha virt. eigenvalues --    0.78200   0.79638   0.79682   0.81411   0.83815
 Alpha virt. eigenvalues --    0.84226   0.87445   0.87618   0.88975   0.89134
 Alpha virt. eigenvalues --    0.91382   0.92317   0.93110   0.94900   0.96342
 Alpha virt. eigenvalues --    0.97399   0.98589   1.01249   1.01433   1.03554
 Alpha virt. eigenvalues --    1.06639   1.08433   1.08638   1.13228   1.13805
 Alpha virt. eigenvalues --    1.14842   1.17294   1.22006   1.22356   1.25286
 Alpha virt. eigenvalues --    1.26932   1.28706   1.30966   1.41150   1.42422
 Alpha virt. eigenvalues --    1.45372   1.51425   1.53969   1.54221   1.54807
 Alpha virt. eigenvalues --    1.56892   1.57633   1.58153   1.61476   1.65611
 Alpha virt. eigenvalues --    1.67669   1.70280   1.75454   1.79968   1.84131
 Alpha virt. eigenvalues --    1.85653   1.88053   1.92319   1.92777   1.96008
 Alpha virt. eigenvalues --    1.97274   1.98415   2.05863   2.06541   2.08174
 Alpha virt. eigenvalues --    2.09385   2.09483   2.16796   2.19558   2.22381
 Alpha virt. eigenvalues --    2.28962   2.44532   2.47972   2.55703   2.66296
 Alpha virt. eigenvalues --    2.77956   2.78339   2.92731   2.97425   2.99549
 Alpha virt. eigenvalues --    3.03111   3.09412   3.11195   3.13237   3.19453
 Alpha virt. eigenvalues --    3.21761   3.27289   3.35675   3.40065   3.40444
 Alpha virt. eigenvalues --    3.42169   3.42895   3.43229   3.45257   3.53472
 Alpha virt. eigenvalues --    3.57688   3.61064   3.65097   3.65407   3.70207
 Alpha virt. eigenvalues --    3.74270   3.74484   3.77513   3.82020   3.85063
 Alpha virt. eigenvalues --    3.89019   3.90929   3.93664   3.96419   3.97993
 Alpha virt. eigenvalues --    4.00357   4.03885   4.09865   4.10386   4.11558
 Alpha virt. eigenvalues --    4.13658   4.22085   4.23250   4.25747   4.29046
 Alpha virt. eigenvalues --    4.30176   4.32740   4.35374   4.38270   4.47740
 Alpha virt. eigenvalues --    4.55334   4.59707   4.59808   4.60637   4.66436
 Alpha virt. eigenvalues --    4.69397   4.70333   4.76908   4.83906   4.84900
 Alpha virt. eigenvalues --    4.87815   4.90781   4.96350   4.97715   5.00112
 Alpha virt. eigenvalues --    5.03095   5.14414   5.15336   5.23639   5.28315
 Alpha virt. eigenvalues --    5.28419   5.36058   5.43343   5.45904   5.48688
 Alpha virt. eigenvalues --    5.55258   5.61880   5.70454   5.71050   5.92337
 Alpha virt. eigenvalues --    6.06820   6.11440   6.33240   6.67825   6.69229
 Alpha virt. eigenvalues --    6.82036   6.92880   7.16798  15.92254  16.40714
 Alpha virt. eigenvalues --   17.16048
          Condensed to atoms (all electrons):
              1          2          3          4          5          6
     1  C    5.087933   0.218983   0.415337  -0.059802  -0.039394   0.415337
     2  H    0.218983   0.259103  -0.030197  -0.006999   0.004699  -0.030197
     3  N    0.415337  -0.030197   5.956725   0.424999   0.410941  -0.118093
     4  H   -0.059802  -0.006999   0.424999   0.622813  -0.083546   0.003036
     5  H   -0.039394   0.004699   0.410941  -0.083546   0.579033  -0.005790
     6  N    0.415337  -0.030197  -0.118093   0.003036  -0.005790   5.956725
     7  H   -0.039394   0.004699  -0.005790  -0.001469   0.002363   0.410941
     8  H   -0.059802  -0.006999   0.003036   0.001026  -0.001469   0.424999
              7          8
     1  C   -0.039394  -0.059802
     2  H    0.004699  -0.006999
     3  N   -0.005790   0.003036
     4  H   -0.001469   0.001026
     5  H    0.002363  -0.001469
     6  N    0.410941   0.424999
     7  H    0.579033  -0.083546
     8  H   -0.083546   0.622813
 Mulliken atomic charges:
              1
     1  C    0.060803
     2  H    0.586906
     3  N   -0.056959
     4  H    0.099941
     5  H    0.133163
     6  N   -0.056959
     7  H    0.133163
     8  H    0.099941
 Sum of Mulliken atomic charges =   1.00000
 Mulliken charges with hydrogens summed into heavy atoms:
              1
     1  C    0.647710
     3  N    0.176145
     6  N    0.176145
 Sum of Mulliken charges with hydrogens summed into heavy atoms =   1.00000
 APT atomic charges:
              1
     1  C    0.789072
     2  H    0.127253
     3  N   -0.526936
     4  H    0.303466
     5  H    0.265308
     6  N   -0.526936
     7  H    0.265308
     8  H    0.303466
 Sum of APT charges=   1.00000
 APT Atomic charges with hydrogens summed into heavy atoms:
              1
     1  C    0.916325
     2  H    0.000000
     3  N    0.041837
     4  H    0.000000
     5  H    0.000000
     6  N    0.041837
     7  H    0.000000
     8  H    0.000000
 Sum of APT charges=   1.00000
 Electronic spatial extent (au):  <R**2>=            158.8856
 Charge=              1.0000 electrons
 Dipole moment (field-independent basis, Debye):
    X=              0.0000    Y=              0.0000    Z=             -0.2858  Tot=              0.2858
 Quadrupole moment (field-independent basis, Debye-Ang):
   XX=            -19.1542   YY=             -4.3291   ZZ=            -10.4496
   XY=              0.0000   XZ=              0.0000   YZ=              0.0000
 Traceless Quadrupole moment (field-independent basis, Debye-Ang):
   XX=             -7.8432   YY=              6.9818   ZZ=              0.8614
   XY=              0.0000   XZ=              0.0000   YZ=              0.0000
 Octapole moment (field-independent basis, Debye-Ang**2):
  XXX=              0.0000  YYY=              0.0000  ZZZ=             -3.2749  XYY=              0.0000
  XXY=              0.0000  XXZ=             -0.1178  XZZ=              0.0000  YZZ=              0.0000
  YYZ=             -0.0600  XYZ=              0.0000
 Hexadecapole moment (field-independent basis, Debye-Ang**3):
 XXXX=            -17.7668 YYYY=            -72.1188 ZZZZ=            -24.2589 XXXY=              0.0000
 XXXZ=              0.0000 YYYX=              0.0000 YYYZ=              0.0000 ZZZX=              0.0000
 ZZZY=              0.0000 XXYY=            -27.5844 XXZZ=             -9.7160 YYZZ=            -18.3137
 XXYZ=              0.0000 YYXZ=              0.0000 ZZXY=              0.0000
 N-N= 7.942410646830D+01 E-N=-5.026772572513D+02  KE= 1.493549807075D+02
 Symmetry A1   KE= 8.847775412396D+01
 Symmetry A2   KE= 3.564452866369D+00
 Symmetry B1   KE= 2.750614068573D+00
 Symmetry B2   KE= 5.456215964859D+01
  Exact polarizability:  18.653   0.000  38.244   0.000   0.000  25.573
 Approx polarizability:  27.289   0.000  70.759   0.000   0.000  40.619
 No NMR shielding tensors so no spin-rotation constants.
 Leave Link  601 at Thu Feb 26 00:43:46 2015, MaxMem= 1073741824 cpu:       2.4
 (Enter /apps/gaussian/g09_c01/g09/l701.exe)
 Compute integral second derivatives.
 ... and contract with generalized density number  0.
 Leave Link  701 at Thu Feb 26 00:43:46 2015, MaxMem= 1073741824 cpu:       2.1
 (Enter /apps/gaussian/g09_c01/g09/l702.exe)
 L702 exits ... SP integral derivatives will be done elsewhere.
 Leave Link  702 at Thu Feb 26 00:43:46 2015, MaxMem= 1073741824 cpu:       0.1
 (Enter /apps/gaussian/g09_c01/g09/l703.exe)
 Compute integral second derivatives, UseDBF=F ICtDFT=           0.
 Integral derivatives from FoFDir, PRISM(SPDF).
 Calling FoFJK, ICntrl=    100527 FMM=F ISym2X=1 I1Cent= 0 IOpClX= 0 NMat=1 NMatS=1 NMatT=0.
 FoFCou: FMM=F IPFlag=           0 FMFlag=      100000 FMFlg1=         800
         NFxFlg=           0 DoJE=F BraDBF=F KetDBF=F FulRan=T
         Omega=  0.000000  0.000000  1.000000  0.000000  0.000000 ICntrl=  100527 IOpCl=  0
         NMat0=    1 NMatS0=    1 NMatT0=    0 NMatD0=    1 NMtDS0=    0 NMtDT0=    0
         I1Cent=           0 NGrid=           0.
 Petite list used in FoFCou.
 Leave Link  703 at Thu Feb 26 00:44:43 2015, MaxMem= 1073741824 cpu:     453.7
 (Enter /apps/gaussian/g09_c01/g09/l716.exe)
 Dipole        =-8.24411587D-17 7.14874123D-14-1.12430930D-01
 Polarizability= 1.86530985D+01 4.81683682D-12 3.82435956D+01
                 1.06646791D-12 6.49165238D-13 2.55725898D+01
 HyperPolar    =-7.03047696D-10-4.05309197D-10-1.79665103D-10
                -2.44026845D-10-3.62336803D-01-1.30189187D-11
                 2.34394210D+01-1.25457337D-10 9.40477178D-11
                -8.83721959D+00
 ***** Axes restored to original set *****
 -------------------------------------------------------------------
 Center     Atomic                   Forces (Hartrees/Bohr)
 Number     Number              X              Y              Z
 -------------------------------------------------------------------
      1        6           0.000000000   -0.001418636    0.000000000
      2        1           0.000000000    0.003360006    0.000000000
      3        7          -0.000436357   -0.000379050    0.000000000
      4        1           0.001398949    0.001596763    0.000000000
      5        1          -0.000080477   -0.002188399    0.000000000
      6        7           0.000436357   -0.000379050    0.000000000
      7        1           0.000080477   -0.002188399    0.000000000
      8        1          -0.001398949    0.001596763    0.000000000
 -------------------------------------------------------------------
 Cartesian Forces:  Max     0.003360006 RMS     0.001165027
 Force constants in Cartesian coordinates: 
                1             2             3             4             5 
      1  0.904032D+00
      2  0.000000D+00  0.797581D+00
      3  0.000000D+00  0.000000D+00  0.151036D+00
      4 -0.571749D-01  0.000000D+00  0.000000D+00  0.649621D-01
      5  0.000000D+00 -0.338215D+00  0.000000D+00  0.000000D+00  0.354273D+00
      6  0.000000D+00  0.000000D+00 -0.479174D-01  0.000000D+00  0.000000D+00
      7 -0.398433D+00  0.150049D+00  0.000000D+00 -0.112310D-02  0.222164D-02
      8  0.141765D+00 -0.234134D+00  0.000000D+00  0.339626D-01 -0.103904D-01
      9  0.000000D+00  0.000000D+00 -0.463904D-01  0.000000D+00  0.000000D+00
     10 -0.265116D-01 -0.163402D-01  0.000000D+00  0.109601D-02  0.113353D-03
     11  0.161818D-01  0.144758D-01  0.000000D+00  0.974007D-03  0.773999D-03
     12  0.000000D+00  0.000000D+00 -0.633705D-02  0.000000D+00  0.000000D+00
     13  0.151653D-02  0.349618D-01  0.000000D+00 -0.386653D-02  0.897721D-03
     14  0.724330D-02 -0.100252D-01  0.000000D+00  0.109306D-02  0.158736D-02
     15  0.000000D+00  0.000000D+00  0.116815D-02  0.000000D+00  0.000000D+00
     16 -0.398433D+00 -0.150049D+00  0.000000D+00 -0.112310D-02 -0.222164D-02
     17 -0.141765D+00 -0.234134D+00  0.000000D+00 -0.339626D-01 -0.103904D-01
     18  0.000000D+00  0.000000D+00 -0.463904D-01  0.000000D+00  0.000000D+00
     19  0.151653D-02 -0.349618D-01  0.000000D+00 -0.386653D-02 -0.897721D-03
     20 -0.724331D-02 -0.100252D-01  0.000000D+00 -0.109306D-02  0.158736D-02
     21  0.000000D+00  0.000000D+00  0.116815D-02  0.000000D+00  0.000000D+00
     22 -0.265116D-01  0.163402D-01  0.000000D+00  0.109601D-02 -0.113354D-03
     23 -0.161818D-01  0.144758D-01  0.000000D+00 -0.974007D-03  0.773999D-03
     24  0.000000D+00  0.000000D+00 -0.633705D-02  0.000000D+00  0.000000D+00
                6             7             8             9            10 
      6  0.274715D-01
      7  0.000000D+00  0.868270D+00
      8  0.000000D+00 -0.170985D-01  0.823175D+00
      9  0.664966D-02  0.000000D+00  0.000000D+00  0.474061D-01
     10  0.000000D+00 -0.323424D+00 -0.171366D+00  0.000000D+00  0.338189D+00
     11  0.000000D+00 -0.175167D+00 -0.183054D+00  0.000000D+00  0.178130D+00
     12 -0.388530D-02  0.000000D+00  0.000000D+00 -0.775228D-02  0.000000D+00
     13  0.000000D+00 -0.726806D-01  0.301115D-01  0.000000D+00  0.955621D-02
     14  0.000000D+00  0.284795D-01 -0.425598D+00  0.000000D+00  0.501507D-02
     15  0.745859D-02  0.000000D+00  0.000000D+00 -0.143022D-01  0.000000D+00
     16  0.000000D+00 -0.766869D-01 -0.127481D-01  0.000000D+00  0.184914D-02
     17  0.000000D+00  0.127481D-01  0.306082D-01  0.000000D+00  0.512113D-02
     18  0.664966D-02  0.000000D+00  0.000000D+00  0.123274D-01  0.000000D+00
     19  0.000000D+00  0.222830D-02  0.494116D-03  0.000000D+00 -0.984757D-04
     20  0.000000D+00  0.494181D-02  0.847685D-03  0.000000D+00 -0.194693D-03
     21  0.745859D-02  0.000000D+00  0.000000D+00 -0.357424D-02  0.000000D+00
     22  0.000000D+00  0.184914D-02 -0.512113D-02  0.000000D+00 -0.656664D-03
     23  0.000000D+00 -0.617536D-02 -0.145414D-02  0.000000D+00 -0.478338D-03
     24 -0.388530D-02  0.000000D+00  0.000000D+00  0.563589D-02  0.000000D+00
               11            12            13            14            15 
     11  0.178122D+00
     12  0.000000D+00  0.109592D-01
     13 -0.270159D-01  0.000000D+00  0.648724D-01
     14 -0.918791D-02  0.000000D+00 -0.376507D-01  0.442222D+00
     15  0.000000D+00 -0.123009D-02  0.000000D+00  0.000000D+00  0.109846D-01
     16  0.617536D-02  0.000000D+00  0.222830D-02 -0.494181D-02  0.000000D+00
     17 -0.145414D-02  0.000000D+00 -0.494116D-03  0.847685D-03  0.000000D+00
     18  0.000000D+00  0.563589D-02  0.000000D+00  0.000000D+00 -0.357424D-02
     19  0.243371D-03  0.000000D+00 -0.152788D-02  0.566937D-03  0.000000D+00
     20 -0.507183D-03  0.000000D+00 -0.566937D-03  0.661093D-03  0.000000D+00
     21  0.000000D+00 -0.560894D-03  0.000000D+00  0.000000D+00  0.560513D-04
     22  0.478338D-03  0.000000D+00 -0.984757D-04  0.194693D-03  0.000000D+00
     23  0.831743D-03  0.000000D+00 -0.243371D-03 -0.507183D-03  0.000000D+00
     24  0.000000D+00  0.317049D-02  0.000000D+00  0.000000D+00 -0.560894D-03
               16            17            18            19            20 
     16  0.868270D+00
     17  0.170985D-01  0.823175D+00
     18  0.000000D+00  0.000000D+00  0.474061D-01
     19 -0.726806D-01 -0.301115D-01  0.000000D+00  0.648724D-01
     20 -0.284795D-01 -0.425598D+00  0.000000D+00  0.376507D-01  0.442222D+00
     21  0.000000D+00  0.000000D+00 -0.143022D-01  0.000000D+00  0.000000D+00
     22 -0.323424D+00  0.171366D+00  0.000000D+00  0.955621D-02 -0.501507D-02
     23  0.175167D+00 -0.183054D+00  0.000000D+00  0.270159D-01 -0.918791D-02
     24  0.000000D+00  0.000000D+00 -0.775228D-02  0.000000D+00  0.000000D+00
               21            22            23            24 
     21  0.109846D-01
     22  0.000000D+00  0.338189D+00
     23  0.000000D+00 -0.178130D+00  0.178122D+00
     24 -0.123009D-02  0.000000D+00  0.000000D+00  0.109592D-01
 Force constants in internal coordinates: 
                1             2             3             4             5 
      1  0.354273D+00
      2  0.655257D-02  0.589229D+00
      3  0.655257D-02  0.503558D-01  0.589229D+00
      4  0.512697D-03  0.562515D-02 -0.556097D-02  0.453430D+00
      5 -0.148582D-02  0.886428D-02 -0.323186D-02  0.496457D-04  0.445931D+00
      6 -0.148582D-02 -0.323186D-02  0.886428D-02  0.430287D-03  0.787942D-03
      7  0.512697D-03 -0.556097D-02  0.562515D-02  0.272509D-03  0.430287D-03
      8  0.362792D-02  0.818946D-02 -0.328182D-01 -0.239079D-02  0.387246D-02
      9  0.362792D-02 -0.328182D-01  0.818946D-02  0.581028D-03  0.817307D-03
     10 -0.725584D-02  0.246288D-01  0.246288D-01  0.180977D-02 -0.468977D-02
     11 -0.143116D-02  0.166099D-01  0.370997D-02  0.211342D-02 -0.837096D-02
     12  0.173041D-02  0.758839D-02 -0.147152D-02 -0.734688D-02  0.238175D-02
     13 -0.299242D-03 -0.241983D-01 -0.223845D-02  0.523346D-02  0.598921D-02
     14  0.173041D-02 -0.147152D-02  0.758839D-02 -0.197947D-03  0.101112D-02
     15 -0.143116D-02  0.370997D-02  0.166099D-01  0.215618D-03 -0.786506D-03
     16 -0.299241D-03 -0.223845D-02 -0.241983D-01 -0.176714D-04 -0.224611D-03
     17  0.000000D+00  0.000000D+00  0.000000D+00  0.000000D+00  0.000000D+00
     18  0.000000D+00  0.000000D+00  0.000000D+00  0.000000D+00  0.000000D+00
     19  0.000000D+00  0.000000D+00  0.000000D+00  0.000000D+00  0.000000D+00
     20  0.000000D+00  0.000000D+00  0.000000D+00  0.000000D+00  0.000000D+00
     21  0.000000D+00  0.000000D+00  0.000000D+00  0.000000D+00  0.000000D+00
     22  0.000000D+00  0.000000D+00  0.000000D+00  0.000000D+00  0.000000D+00
     23  0.000000D+00  0.000000D+00  0.000000D+00  0.000000D+00  0.000000D+00
     24  0.000000D+00  0.000000D+00  0.000000D+00  0.000000D+00  0.000000D+00
                6             7             8             9            10 
      6  0.445931D+00
      7  0.496459D-04  0.453430D+00
      8  0.817306D-03  0.581028D-03  0.106520D+00
      9  0.387246D-02 -0.239079D-02 -0.338820D-01  0.106520D+00
     10 -0.468977D-02  0.180977D-02 -0.726378D-01 -0.726378D-01  0.145276D+00
     11 -0.786507D-03  0.215618D-03 -0.793941D-02 -0.363505D-02  0.115745D-01
     12  0.101112D-02 -0.197947D-03  0.909474D-02 -0.414388D-03 -0.868035D-02
     13 -0.224611D-03 -0.176713D-04 -0.115533D-02  0.404944D-02 -0.289411D-02
     14  0.238175D-02 -0.734688D-02 -0.414388D-03  0.909474D-02 -0.868035D-02
     15 -0.837096D-02  0.211342D-02 -0.363505D-02 -0.793941D-02  0.115745D-01
     16  0.598921D-02  0.523346D-02  0.404944D-02 -0.115533D-02 -0.289411D-02
     17  0.000000D+00  0.000000D+00  0.000000D+00  0.000000D+00  0.000000D+00
     18  0.000000D+00  0.000000D+00  0.000000D+00  0.000000D+00  0.000000D+00
     19  0.000000D+00  0.000000D+00  0.000000D+00  0.000000D+00  0.000000D+00
     20  0.000000D+00  0.000000D+00  0.000000D+00  0.000000D+00  0.000000D+00
     21  0.000000D+00  0.000000D+00  0.000000D+00  0.000000D+00  0.000000D+00
     22  0.000000D+00  0.000000D+00  0.000000D+00  0.000000D+00  0.000000D+00
     23  0.000000D+00  0.000000D+00  0.000000D+00  0.000000D+00  0.000000D+00
     24  0.000000D+00  0.000000D+00  0.000000D+00  0.000000D+00  0.000000D+00
               11            12            13            14            15 
     11  0.826874D-01
     12 -0.442486D-01  0.809612D-01
     13 -0.384388D-01 -0.367125D-01  0.751513D-01
     14 -0.154546D-02  0.231630D-02 -0.770842D-03  0.809612D-01
     15  0.208118D-02 -0.154546D-02 -0.535716D-03 -0.442486D-01  0.826874D-01
     16 -0.535716D-03 -0.770842D-03  0.130656D-02 -0.367125D-01 -0.384388D-01
     17  0.000000D+00  0.000000D+00  0.000000D+00  0.000000D+00  0.000000D+00
     18  0.000000D+00  0.000000D+00  0.000000D+00  0.000000D+00  0.000000D+00
     19  0.000000D+00  0.000000D+00  0.000000D+00  0.000000D+00  0.000000D+00
     20  0.000000D+00  0.000000D+00  0.000000D+00  0.000000D+00  0.000000D+00
     21  0.000000D+00  0.000000D+00  0.000000D+00  0.000000D+00  0.000000D+00
     22  0.000000D+00  0.000000D+00  0.000000D+00  0.000000D+00  0.000000D+00
     23  0.000000D+00  0.000000D+00  0.000000D+00  0.000000D+00  0.000000D+00
     24  0.000000D+00  0.000000D+00  0.000000D+00  0.000000D+00  0.000000D+00
               16            17            18            19            20 
     16  0.751513D-01
     17  0.000000D+00  0.978323D-02
     18  0.000000D+00  0.437618D-02  0.131297D-01
     19  0.000000D+00  0.380779D-02 -0.544536D-02  0.156570D-01
     20  0.000000D+00 -0.159926D-02  0.330815D-02  0.640388D-02  0.113113D-01
     21  0.000000D+00 -0.381710D-02 -0.540178D-02  0.600444D-02  0.441975D-02
     22  0.000000D+00 -0.369629D-02 -0.381710D-02  0.227914D-02  0.215834D-02
     23  0.000000D+00  0.215834D-02  0.441975D-02 -0.584480D-02 -0.358339D-02
     24  0.000000D+00  0.227914D-02  0.600444D-02 -0.957009D-02 -0.584480D-02
               21            22            23            24 
     21  0.131297D-01
     22  0.437618D-02  0.978323D-02
     23  0.330815D-02 -0.159926D-02  0.113113D-01
     24 -0.544536D-02  0.380779D-02  0.640388D-02  0.156570D-01
 Leave Link  716 at Thu Feb 26 00:44:43 2015, MaxMem= 1073741824 cpu:       0.1
 (Enter /apps/gaussian/g09_c01/g09/l103.exe)

 GradGradGradGradGradGradGradGradGradGradGradGradGradGradGradGradGradGrad
 Berny optimization.
 Red2BG is reusing G-inverse.
 Internal  Forces:  Max     0.003360006 RMS     0.001182276
 Search for a local minimum.
 Step number   1 out of a maximum of   34
 All quantities printed in internal units (Hartrees-Bohrs-Radians)
 RMS Force = .11823D-02 SwitMx=.10000D-02 MixMth= 1
 Mixed Optimization -- RFO/linear search
 Second derivative matrix not updated -- analytic derivatives used.
 ITU=  0
     Eigenvalues ---    0.01183   0.01281   0.01580   0.01987   0.03945
     Eigenvalues ---    0.10754   0.11230   0.11794   0.12307   0.14143
     Eigenvalues ---    0.21852   0.35481   0.44382   0.44745   0.45264
     Eigenvalues ---    0.45404   0.54731   0.64651
 RFO step:  Lambda=-8.67455660D-05 EMin= 1.18291251D-02
 Linear search not attempted -- first point.
 Iteration  1 RMS(Cart)=  0.00344684 RMS(Int)=  0.00000578
 Iteration  2 RMS(Cart)=  0.00000661 RMS(Int)=  0.00000000
 Iteration  3 RMS(Cart)=  0.00000000 RMS(Int)=  0.00000000
 ClnCor:  largest displacement from symmetrization is 5.43D-11 for atom     7.
 Variable       Old X    -DE/DX   Delta X   Delta X   Delta X     New X
                                 (Linear)    (Quad)   (Total)
    R1        2.05337   0.00336   0.00000   0.00937   0.00937   2.06273
    R2        2.48365   0.00123   0.00000   0.00221   0.00221   2.48586
    R3        2.48365   0.00123   0.00000   0.00221   0.00221   2.48586
    R4        1.91586   0.00204   0.00000   0.00444   0.00444   1.92030
    R5        1.91959   0.00217   0.00000   0.00468   0.00468   1.92427
    R6        1.91959   0.00217   0.00000   0.00468   0.00468   1.92427
    R7        1.91586   0.00204   0.00000   0.00444   0.00444   1.92030
    A1        2.04681   0.00020   0.00000   0.00067   0.00067   2.04748
    A2        2.04681   0.00020   0.00000   0.00067   0.00067   2.04748
    A3        2.18957  -0.00040   0.00000  -0.00134  -0.00134   2.18823
    A4        2.09627  -0.00056   0.00000  -0.00435  -0.00435   2.09192
    A5        2.15059  -0.00002   0.00000  -0.00067  -0.00067   2.14992
    A6        2.03632   0.00057   0.00000   0.00502   0.00502   2.04134
    A7        2.15059  -0.00002   0.00000  -0.00067  -0.00067   2.14992
    A8        2.09627  -0.00056   0.00000  -0.00435  -0.00435   2.09192
    A9        2.03632   0.00057   0.00000   0.00502   0.00502   2.04134
    D1        0.00000   0.00000   0.00000   0.00000   0.00000   0.00000
    D2        3.14159   0.00000   0.00000   0.00000   0.00000   3.14159
    D3        3.14159   0.00000   0.00000   0.00000   0.00000   3.14159
    D4        0.00000   0.00000   0.00000   0.00000   0.00000   0.00000
    D5        3.14159   0.00000   0.00000   0.00000   0.00000   3.14159
    D6        0.00000   0.00000   0.00000   0.00000   0.00000   0.00000
    D7        0.00000   0.00000   0.00000   0.00000   0.00000   0.00000
    D8        3.14159   0.00000   0.00000   0.00000   0.00000   3.14159
         Item               Value     Threshold  Converged?
 Maximum Force            0.003360     0.000002     NO 
 RMS     Force            0.001182     0.000001     NO 
 Maximum Displacement     0.009212     0.000006     NO 
 RMS     Displacement     0.003447     0.000004     NO 
 Predicted change in Energy=-4.338461D-05
 GradGradGradGradGradGradGradGradGradGradGradGradGradGradGradGradGradGrad

 Leave Link  103 at Thu Feb 26 00:44:43 2015, MaxMem= 1073741824 cpu:       0.1
 (Enter /apps/gaussian/g09_c01/g09/l202.exe)
                          Input orientation:                          
 ---------------------------------------------------------------------
 Center     Atomic      Atomic             Coordinates (Angstroms)
 Number     Number       Type             X           Y           Z
 ---------------------------------------------------------------------
      1          6           0        0.000000    0.427189    0.000000
      2          1           0        0.000000    1.518739    0.000000
      3          7           0        1.168816   -0.176391    0.000000
      4          1           0        2.022697    0.374521    0.000000
      5          1           0        1.272949   -1.189331    0.000000
      6          7           0       -1.168816   -0.176391    0.000000
      7          1           0       -1.272949   -1.189331    0.000000
      8          1           0       -2.022697    0.374521    0.000000
 ---------------------------------------------------------------------
                    Distance matrix (angstroms):
                    1          2          3          4          5
     1  C    0.000000
     2  H    1.091550   0.000000
     3  N    1.315462   2.059028   0.000000
     4  H    2.023382   2.323905   1.016177   0.000000
     5  H    2.057556   2.992330   1.018278   1.734288   0.000000
     6  N    1.315462   2.059028   2.337633   3.238713   2.643533
     7  H    2.057556   2.992330   2.643533   3.647865   2.545898
     8  H    2.023382   2.323905   3.238713   4.045393   3.647865
                    6          7          8
     6  N    0.000000
     7  H    1.018278   0.000000
     8  H    1.016177   1.734288   0.000000
 Stoichiometry    CH5N2(1+)
 Framework group  C2V[C2(CH),SGV(H4N2)]
 Deg. of freedom     7
 Full point group                 C2V     NOp   4
 RotChk:  IX=0 Diff= 1.96D-16
 Largest Abelian subgroup         C2V     NOp   4
 Largest concise Abelian subgroup C2      NOp   2
                         Standard orientation:                         
 ---------------------------------------------------------------------
 Center     Atomic      Atomic             Coordinates (Angstroms)
 Number     Number       Type             X           Y           Z
 ---------------------------------------------------------------------
      1          6           0        0.000000    0.000000    0.427878
      2          1           0        0.000000    0.000000    1.519428
      3          7           0        0.000000    1.168816   -0.175702
      4          1           0        0.000000    2.022697    0.375210
      5          1           0        0.000000    1.272949   -1.188642
      6          7           0        0.000000   -1.168816   -0.175702
      7          1           0        0.000000   -1.272949   -1.188642
      8          1           0        0.000000   -2.022697    0.375210
 ---------------------------------------------------------------------
 Rotational constants (GHZ):     59.3192895     10.1537011      8.6697050
 Leave Link  202 at Thu Feb 26 00:44:43 2015, MaxMem= 1073741824 cpu:       0.0
 (Enter /apps/gaussian/g09_c01/g09/l301.exe)
 Standard basis: Aug-CC-pVTZ (5D, 7F)
 Ernie: Thresh=  0.10000D-02 Tol=  0.10000D-05 Strict=F.
 Ernie:  9 primitive shells out of 145 were deleted.
 There are    92 symmetry adapted basis functions of A1  symmetry.
 There are    37 symmetry adapted basis functions of A2  symmetry.
 There are    46 symmetry adapted basis functions of B1  symmetry.
 There are    78 symmetry adapted basis functions of B2  symmetry.
 Integral buffers will be    131072 words long.
 Raffenetti 2 integral format.
 Two-electron integral symmetry is turned on.
   253 basis functions,   351 primitive gaussians,   290 cartesian basis functions
    12 alpha electrons       12 beta electrons
       nuclear repulsion energy        79.3189534828 Hartrees.
 IExCor= 1009 DFT=T Ex=PBE Corr=PBE ExCW=0 ScaHFX=  0.000000
 ScaDFX=  1.000000  1.000000  1.000000  1.000000 ScalE2=  1.000000  1.000000
 IRadAn=      5 IRanWt=     -1 IRanGd=            0 ICorTp=0
 NAtoms=    8 NActive=    8 NUniq=    5 SFac= 2.56D+00 NAtFMM=   60 NAOKFM=F Big=F
 Leave Link  301 at Thu Feb 26 00:44:43 2015, MaxMem= 1073741824 cpu:       0.3
 (Enter /apps/gaussian/g09_c01/g09/l302.exe)
 NPDir=0 NMtPBC=     1 NCelOv=     1 NCel=       1 NClECP=     1 NCelD=      1
         NCelK=      1 NCelE2=     1 NClLst=     1 CellRange=     0.0.
 One-electron integrals computed using PRISM.
 One-electron integral symmetry used in STVInt
 NBasis=   253 RedAO= T  NBF=    92    37    46    78
 NBsUse=   253 1.00D-06 NBFU=    92    37    46    78
 Precomputing XC quadrature grid using
 IXCGrd= 2 IRadAn=           5 IRanWt=          -1 IRanGd=           0 AccXCQ= 0.00D+00.
 NRdTot=     686 NPtTot=      184860 NUsed=      189779 NTot=      189811
 NSgBfM=   290   290   290   290   290 NAtAll=     8     8.
 Leave Link  302 at Thu Feb 26 00:44:43 2015, MaxMem= 1073741824 cpu:       1.7
 (Enter /apps/gaussian/g09_c01/g09/l303.exe)
 DipDrv:  MaxL=1.
 Leave Link  303 at Thu Feb 26 00:44:43 2015, MaxMem= 1073741824 cpu:       0.2
 (Enter /apps/gaussian/g09_c01/g09/l401.exe)
 Initial guess read from the read-write file.
 B after Tr=     0.000000    0.000000    0.000000
         Rot=    1.000000    0.000000    0.000000    0.000000 Ang=   0.00 deg.
 Guess basis will be translated and rotated to current coordinates.
 Initial guess orbital symmetries:
       Occupied  (A1) (B2) (A1) (A1) (B2) (A1) (A1) (B2) (B2) (A1)
                 (B1) (A2)
       Virtual   (B1) (A1) (A1) (B2) (B2) (A1) (B1) (A1) (B2) (A1)
                 (A2) (B1) (A1) (B2) (A1) (A1) (B2) (B2) (A1) (B1)
                 (A2) (A1) (B2) (B2) (B1) (A1) (A1) (B1) (A1) (B2)
                 (B2) (A2) (A1) (A1) (B1) (A2) (A1) (B2) (A1) (B2)
                 (A1) (B2) (B2) (B1) (A1) (A2) (B2) (B1) (A1) (B2)
                 (B1) (A2) (A1) (A1) (B2) (B2) (A1) (A1) (A1) (B1)
                 (A2) (B2) (A1) (B2) (B1) (A1) (A2) (B2) (A1) (B1)
                 (A2) (B1) (B2) (A1) (B2) (A1) (B2) (B1) (A1) (A2)
                 (A1) (B1) (B2) (A2) (B1) (A1) (B2) (A1) (A2) (A1)
                 (B2) (B2) (A2) (B2) (B1) (A1) (A2) (B2) (A1) (A1)
                 (B1) (B1) (B2) (A1) (B2) (A2) (A1) (B2) (B1) (B2)
                 (A1) (A1) (A2) (A1) (B1) (B2) (B2) (A2) (B1) (A1)
                 (B1) (B2) (A1) (A1) (A2) (A1) (B2) (B2) (A1) (A1)
                 (A2) (B1) (B2) (B1) (A1) (B2) (B2) (A2) (B1) (B2)
                 (A1) (B2) (A2) (A1) (A1) (B2) (B1) (B2) (A1) (A1)
                 (B2) (B1) (A1) (A2) (B2) (B1) (B1) (A1) (A2) (A1)
                 (B2) (A1) (A1) (B2) (A2) (B1) (B2) (A1) (A2) (A1)
                 (B2) (A1) (A2) (B1) (B1) (A2) (A1) (B1) (A2) (B2)
                 (B2) (B1) (A1) (A2) (A1) (B2) (A1) (B1) (B2) (B2)
                 (A1) (B1) (A1) (A2) (B1) (A1) (B2) (B2) (A2) (A1)
                 (B2) (B1) (A1) (B2) (B2) (A1) (A2) (B2) (B1) (B2)
                 (A1) (B1) (A2) (A1) (B1) (A1) (B2) (A1) (A2) (A2)
                 (B2) (B1) (B2) (A2) (A1) (B1) (B2) (A1) (B2) (A1)
                 (B2) (A1) (A1) (A1) (B2) (B2) (A1) (B2) (A1) (B2)
                 (A1)
 The electronic state of the initial guess is 1-A1.
 Leave Link  401 at Thu Feb 26 00:44:44 2015, MaxMem= 1073741824 cpu:       1.8
 (Enter /apps/gaussian/g09_c01/g09/l502.exe)
 Closed shell SCF:
 Requested convergence on RMS density matrix=1.00D-08 within 128 cycles.
 Requested convergence on MAX density matrix=1.00D-06.
 Requested convergence on             energy=1.00D-06.
 No special actions if energy rises.
 Using DIIS extrapolation, IDIIS=  1040.
 Integral symmetry usage will be decided dynamically.
       189694 words used for storage of precomputed grid.
 Keep J ints in memory in canonical form, NReq=903016134.
 IEnd=      465070 IEndB=      465070 NGot=  1073741824 MDV=   183147647
 LenX=   183147647 LenY=   183063106
 Symmetry not used in FoFDir.
 MinBra= 0 MaxBra= 3 Meth= 1.
 IRaf=       0 NMat=   1 IRICut=       1 DoRegI=T DoRafI=F ISym2E= 0 JSym2E=0.

 Cycle   1  Pass 1  IDiag  1:
 E= -150.261839661453    
 DIIS: error= 3.82D-04 at cycle   1 NSaved=   1.
 NSaved= 1 IEnMin= 1 EnMin= -150.261839661453     IErMin= 1 ErrMin= 3.82D-04
 ErrMax= 3.82D-04 EMaxC= 1.00D-01 BMatC= 2.25D-05 BMatP= 2.25D-05
 IDIUse=3 WtCom= 9.96D-01 WtEn= 3.82D-03
 Coeff-Com:  0.100D+01
 Coeff-En:   0.100D+01
 Coeff:      0.100D+01
 Gap=     0.206 Goal=   None    Shift=    0.000
 RMSDP=2.95D-05 MaxDP=1.44D-03              OVMax= 1.58D-03

 Cycle   2  Pass 1  IDiag  1:
 E= -150.261850295111     Delta-E=       -0.000010633658 Rises=F Damp=F
 DIIS: error= 1.59D-04 at cycle   2 NSaved=   2.
 NSaved= 2 IEnMin= 2 EnMin= -150.261850295111     IErMin= 2 ErrMin= 1.59D-04
 ErrMax= 1.59D-04 EMaxC= 1.00D-01 BMatC= 2.67D-06 BMatP= 2.25D-05
 IDIUse=3 WtCom= 9.98D-01 WtEn= 1.59D-03
 Coeff-Com:  0.169D+00 0.831D+00
 Coeff-En:   0.000D+00 0.100D+01
 Coeff:      0.168D+00 0.832D+00
 Gap=     0.205 Goal=   None    Shift=    0.000
 RMSDP=6.69D-06 MaxDP=3.19D-04 DE=-1.06D-05 OVMax= 1.12D-03

 Cycle   3  Pass 1  IDiag  1:
 E= -150.261850316497     Delta-E=       -0.000000021387 Rises=F Damp=F
 DIIS: error= 1.84D-04 at cycle   3 NSaved=   3.
 NSaved= 3 IEnMin= 3 EnMin= -150.261850316497     IErMin= 2 ErrMin= 1.59D-04
 ErrMax= 1.84D-04 EMaxC= 1.00D-01 BMatC= 2.68D-06 BMatP= 2.67D-06
 IDIUse=3 WtCom= 9.98D-01 WtEn= 1.84D-03
 Coeff-Com:  0.233D-01 0.498D+00 0.479D+00
 Coeff-En:   0.000D+00 0.498D+00 0.502D+00
 Coeff:      0.233D-01 0.498D+00 0.479D+00
 Gap=     0.206 Goal=   None    Shift=    0.000
 RMSDP=3.54D-06 MaxDP=1.93D-04 DE=-2.14D-08 OVMax= 7.04D-04

 Cycle   4  Pass 1  IDiag  1:
 E= -150.261852845341     Delta-E=       -0.000002528844 Rises=F Damp=F
 DIIS: error= 2.94D-05 at cycle   4 NSaved=   4.
 NSaved= 4 IEnMin= 4 EnMin= -150.261852845341     IErMin= 4 ErrMin= 2.94D-05
 ErrMax= 2.94D-05 EMaxC= 1.00D-01 BMatC= 8.21D-08 BMatP= 2.67D-06
 IDIUse=1 WtCom= 1.00D+00 WtEn= 0.00D+00
 Coeff-Com:  0.633D-02 0.237D+00 0.253D+00 0.504D+00
 Coeff:      0.633D-02 0.237D+00 0.253D+00 0.504D+00
 Gap=     0.206 Goal=   None    Shift=    0.000
 RMSDP=6.26D-07 MaxDP=3.51D-05 DE=-2.53D-06 OVMax= 1.51D-04

 Cycle   5  Pass 1  IDiag  1:
 E= -150.261852901176     Delta-E=       -0.000000055835 Rises=F Damp=F
 DIIS: error= 1.20D-05 at cycle   5 NSaved=   5.
 NSaved= 5 IEnMin= 5 EnMin= -150.261852901176     IErMin= 5 ErrMin= 1.20D-05
 ErrMax= 1.20D-05 EMaxC= 1.00D-01 BMatC= 1.40D-08 BMatP= 8.21D-08
 IDIUse=1 WtCom= 1.00D+00 WtEn= 0.00D+00
 Coeff-Com:  0.295D-03 0.715D-01 0.848D-01 0.313D+00 0.531D+00
 Coeff:      0.295D-03 0.715D-01 0.848D-01 0.313D+00 0.531D+00
 Gap=     0.206 Goal=   None    Shift=    0.000
 RMSDP=2.11D-07 MaxDP=9.23D-06 DE=-5.58D-08 OVMax= 4.04D-05

 Cycle   6  Pass 1  IDiag  1:
 E= -150.261852912018     Delta-E=       -0.000000010842 Rises=F Damp=F
 DIIS: error= 9.77D-07 at cycle   6 NSaved=   6.
 NSaved= 6 IEnMin= 6 EnMin= -150.261852912018     IErMin= 6 ErrMin= 9.77D-07
 ErrMax= 9.77D-07 EMaxC= 1.00D-01 BMatC= 9.09D-11 BMatP= 1.40D-08
 IDIUse=1 WtCom= 1.00D+00 WtEn= 0.00D+00
 Coeff-Com: -0.156D-03 0.151D-01 0.184D-01 0.810D-01 0.170D+00 0.716D+00
 Coeff:     -0.156D-03 0.151D-01 0.184D-01 0.810D-01 0.170D+00 0.716D+00
 Gap=     0.206 Goal=   None    Shift=    0.000
 RMSDP=2.40D-08 MaxDP=7.05D-07 DE=-1.08D-08 OVMax= 2.65D-06

 Cycle   7  Pass 1  IDiag  1:
 E= -150.261852912090     Delta-E=       -0.000000000071 Rises=F Damp=F
 DIIS: error= 1.52D-07 at cycle   7 NSaved=   7.
 NSaved= 7 IEnMin= 7 EnMin= -150.261852912090     IErMin= 7 ErrMin= 1.52D-07
 ErrMax= 1.52D-07 EMaxC= 1.00D-01 BMatC= 2.76D-12 BMatP= 9.09D-11
 IDIUse=1 WtCom= 1.00D+00 WtEn= 0.00D+00
 Coeff-Com: -0.593D-04 0.352D-02 0.425D-02 0.201D-01 0.438D-01 0.240D+00
 Coeff-Com:  0.689D+00
 Coeff:     -0.593D-04 0.352D-02 0.425D-02 0.201D-01 0.438D-01 0.240D+00
 Coeff:      0.689D+00
 Gap=     0.206 Goal=   None    Shift=    0.000
 RMSDP=3.95D-09 MaxDP=1.21D-07 DE=-7.15D-11 OVMax= 5.36D-07

 SCF Done:  E(RPBE-PBE) =  -150.261852912     A.U. after    7 cycles
             Convg  =    0.3947D-08             -V/T =  2.0063
 KE= 1.493251112238D+02 PE=-5.024557072359D+02 EE= 1.235497896173D+02
 Leave Link  502 at Thu Feb 26 00:45:06 2015, MaxMem= 1073741824 cpu:     181.3
 (Enter /apps/gaussian/g09_c01/g09/l801.exe)
 Range of M.O.s used for correlation:     1   253
 NBasis=   253 NAE=    12 NBE=    12 NFC=     0 NFV=     0
 NROrb=    253 NOA=    12 NOB=    12 NVA=   241 NVB=   241

 **** Warning!!: The largest alpha MO coefficient is  0.47159537D+02

 Leave Link  801 at Thu Feb 26 00:45:06 2015, MaxMem= 1073741824 cpu:       0.1
 (Enter /apps/gaussian/g09_c01/g09/l1002.exe)
 Minotr:  Closed shell wavefunction.
          Direct CPHF calculation.
          Differentiating once with respect to electric field.
                with respect to dipole field.
          Electric field/nuclear overlap derivatives assumed to be zero.
          Using symmetry in CPHF.
          Requested convergence is 1.0D-08 RMS, and 1.0D-07 maximum.
          Secondary convergence is 1.0D-12 RMS, and 1.0D-12 maximum.
          NewPWx=F KeepS1=T KeepF1=T KeepIn=T MapXYZ=F SortEE=F KeepMc=T.
          MDV=    1073741756 using IRadAn=       1.
 Generate precomputed XC quadrature information.
          Keep J ints in memory in canonical form, NReq=892175092.
 Symmetry not used in FoFDir.
 MinBra= 0 MaxBra= 3 Meth= 1.
 IRaf=       0 NMat=   1 IRICut=       1 DoRegI=T DoRafI=F ISym2E= 0 JSym2E=0.
          Solving linear equations simultaneously, MaxMat=       0.
          There are     3 degrees of freedom in the 1st order CPHF.  IDoFFX=0.
      3 vectors produced by pass  0 Test12= 9.64D-14 3.33D-08 XBig12= 6.15D+01 6.96D+00.
 AX will form     3 AO Fock derivatives at one time.
      3 vectors produced by pass  1 Test12= 9.64D-14 3.33D-08 XBig12= 3.68D+01 2.01D+00.
      3 vectors produced by pass  2 Test12= 9.64D-14 3.33D-08 XBig12= 3.22D+00 4.55D-01.
      3 vectors produced by pass  3 Test12= 9.64D-14 3.33D-08 XBig12= 9.33D-02 6.77D-02.
      3 vectors produced by pass  4 Test12= 9.64D-14 3.33D-08 XBig12= 1.14D-02 2.81D-02.
      3 vectors produced by pass  5 Test12= 9.64D-14 3.33D-08 XBig12= 2.09D-03 1.05D-02.
      3 vectors produced by pass  6 Test12= 9.64D-14 3.33D-08 XBig12= 5.32D-05 2.14D-03.
      3 vectors produced by pass  7 Test12= 9.64D-14 3.33D-08 XBig12= 9.89D-07 1.63D-04.
      2 vectors produced by pass  8 Test12= 9.64D-14 3.33D-08 XBig12= 2.95D-09 1.15D-05.
      2 vectors produced by pass  9 Test12= 9.64D-14 3.33D-08 XBig12= 9.57D-11 2.45D-06.
      1 vectors produced by pass 10 Test12= 9.64D-14 3.33D-08 XBig12= 1.24D-12 2.20D-07.
 Inverted reduced A of dimension    29 with in-core refinement.
 End of Minotr Frequency-dependent properties file   721 does not exist.
 End of Minotr Frequency-dependent properties file   722 does not exist.
 Leave Link 1002 at Thu Feb 26 00:46:11 2015, MaxMem= 1073741824 cpu:     516.6
 (Enter /apps/gaussian/g09_c01/g09/l1101.exe)
 Using compressed storage, NAtomX=     8.
 Will process   9 centers per pass.
 Leave Link 1101 at Thu Feb 26 00:46:11 2015, MaxMem= 1073741824 cpu:       2.0
 (Enter /apps/gaussian/g09_c01/g09/l1102.exe)
 Symmetrizing basis deriv contribution to polar:
 IMax=3 JMax=2 DiffMx= 0.00D+00
 Leave Link 1102 at Thu Feb 26 00:46:11 2015, MaxMem= 1073741824 cpu:       0.3
 (Enter /apps/gaussian/g09_c01/g09/l1110.exe)
 Forming Gx(P) for the SCF density, NAtomX=     8.
 Integral derivatives from FoFDir/FoFCou, PRISM(SPDF).
 Do as many integral derivatives as possible in FoFDir.
 G2DrvN: MDV=    1073741656.
 G2DrvN: will do     9 centers at a time, making    1 passes doing MaxLOS=3.
 Calling FoFCou, ICntrl=  3507 FMM=F I1Cent=   0 AccDes= 0.00D+00.
 FoFCou: FMM=F IPFlag=           0 FMFlag=      100000 FMFlg1=           0
         NFxFlg=           0 DoJE=F BraDBF=F KetDBF=F FulRan=T
         Omega=  0.000000  0.000000  1.000000  0.000000  0.000000 ICntrl=    3507 IOpCl=  0
         NMat0=    1 NMatS0=    1 NMatT0=    0 NMatD0=    4 NMtDS0=    3 NMtDT0=    0
         I1Cent=           0 NGrid=           0.
 Petite list used in FoFCou.
 FoFDir/FoFCou used for L=0 through L=3.
 End of G2Drv Frequency-dependent properties file   721 does not exist.
 End of G2Drv Frequency-dependent properties file   722 does not exist.
 Leave Link 1110 at Thu Feb 26 00:46:46 2015, MaxMem= 1073741824 cpu:     279.1
 (Enter /apps/gaussian/g09_c01/g09/l1002.exe)
 Minotr:  Closed shell wavefunction.
          IDoAtm=11111111
          Direct CPHF calculation.
          Differentiating once with respect to electric field.
                with respect to dipole field.
          Differentiating once with respect to nuclear coordinates.
          Using symmetry in CPHF.
          Requested convergence is 1.0D-08 RMS, and 1.0D-07 maximum.
          Secondary convergence is 1.0D-12 RMS, and 1.0D-12 maximum.
          NewPWx=T KeepS1=F KeepF1=F KeepIn=T MapXYZ=F SortEE=F KeepMc=T.
          MDV=    1073741740 using IRadAn=       1.
 Generate precomputed XC quadrature information.
          Keep J ints in memory in canonical form, NReq=892175260.
 Symmetry not used in FoFDir.
 MinBra= 0 MaxBra= 3 Meth= 1.
 IRaf=       0 NMat=   1 IRICut=       1 DoRegI=T DoRafI=F ISym2E= 0 JSym2E=0.
          Solving linear equations simultaneously, MaxMat=       0.
          There are    18 degrees of freedom in the 1st order CPHF.  IDoFFX=4.
 Will reuse    3 saved solutions.
     15 vectors produced by pass  0 Test12= 1.61D-14 5.56D-09 XBig12= 1.69D-01 1.48D-01.
 AX will form    15 AO Fock derivatives at one time.
     15 vectors produced by pass  1 Test12= 1.61D-14 5.56D-09 XBig12= 9.46D-02 1.70D-01.
     15 vectors produced by pass  2 Test12= 1.61D-14 5.56D-09 XBig12= 1.01D-03 7.65D-03.
     15 vectors produced by pass  3 Test12= 1.61D-14 5.56D-09 XBig12= 6.76D-06 4.33D-04.
     15 vectors produced by pass  4 Test12= 1.61D-14 5.56D-09 XBig12= 1.70D-08 1.85D-05.
     10 vectors produced by pass  5 Test12= 1.61D-14 5.56D-09 XBig12= 1.20D-11 4.96D-07.
      2 vectors produced by pass  6 Test12= 1.61D-14 5.56D-09 XBig12= 2.76D-14 3.06D-08.
 Inverted reduced A of dimension    87 with in-core refinement.
 FullF1:  Do perturbations    1 to    18.
 Isotropic polarizability for W=    0.000000       27.60 Bohr**3.
 FullF1:  Do perturbations    1 to     6.
 End of Minotr Frequency-dependent properties file   721 does not exist.
 End of Minotr Frequency-dependent properties file   722 does not exist.
 Leave Link 1002 at Thu Feb 26 00:48:17 2015, MaxMem= 1073741824 cpu:     727.8
 (Enter /apps/gaussian/g09_c01/g09/l701.exe)
 Compute integral second derivatives.
 ... and contract with generalized density number  0.
 Leave Link  701 at Thu Feb 26 00:48:18 2015, MaxMem= 1073741824 cpu:       2.1
 (Enter /apps/gaussian/g09_c01/g09/l702.exe)
 L702 exits ... SP integral derivatives will be done elsewhere.
 Leave Link  702 at Thu Feb 26 00:48:18 2015, MaxMem= 1073741824 cpu:       0.1
 (Enter /apps/gaussian/g09_c01/g09/l703.exe)
 Compute integral second derivatives, UseDBF=F ICtDFT=           0.
 Integral derivatives from FoFDir, PRISM(SPDF).
 Calling FoFJK, ICntrl=    100527 FMM=F ISym2X=1 I1Cent= 0 IOpClX= 0 NMat=1 NMatS=1 NMatT=0.
 FoFCou: FMM=F IPFlag=           0 FMFlag=      100000 FMFlg1=         800
         NFxFlg=           0 DoJE=F BraDBF=F KetDBF=F FulRan=T
         Omega=  0.000000  0.000000  1.000000  0.000000  0.000000 ICntrl=  100527 IOpCl=  0
         NMat0=    1 NMatS0=    1 NMatT0=    0 NMatD0=    1 NMtDS0=    0 NMtDT0=    0
         I1Cent=           0 NGrid=           0.
 Petite list used in FoFCou.
 Leave Link  703 at Thu Feb 26 00:49:15 2015, MaxMem= 1073741824 cpu:     454.2
 (Enter /apps/gaussian/g09_c01/g09/l716.exe)
 Dipole        =-8.31646058D-17 1.23862942D-13-1.10217411D-01
 Polarizability= 1.86975727D+01 1.99174089D-12 3.83563839D+01
                 9.54172323D-13-1.30377133D-12 2.57378063D+01
 HyperPolar    =-9.54771989D-10-4.04243255D-10-1.29002640D-10
                -3.51207222D-10-3.67217212D-01-1.77995607D-11
                 2.35898772D+01-1.64215929D-10 7.16984063D-11
                -8.85077296D+00
 ***** Axes restored to original set *****
 -------------------------------------------------------------------
 Center     Atomic                   Forces (Hartrees/Bohr)
 Number     Number              X              Y              Z
 -------------------------------------------------------------------
      1        6           0.000000000   -0.000041862    0.000000000
      2        1           0.000000000    0.000047049    0.000000000
      3        7          -0.000007816    0.000005004    0.000000000
      4        1           0.000012651    0.000010084    0.000000000
      5        1           0.000000040   -0.000017681    0.000000000
      6        7           0.000007816    0.000005004    0.000000000
      7        1          -0.000000040   -0.000017681    0.000000000
      8        1          -0.000012651    0.000010084    0.000000000
 -------------------------------------------------------------------
 Cartesian Forces:  Max     0.000047049 RMS     0.000014842
 Force constants in Cartesian coordinates: 
                1             2             3             4             5 
      1  0.898675D+00
      2  0.000000D+00  0.786140D+00
      3  0.000000D+00  0.000000D+00  0.152485D+00
      4 -0.580766D-01  0.000000D+00  0.000000D+00  0.657208D-01
      5  0.000000D+00 -0.328464D+00  0.000000D+00  0.000000D+00  0.344477D+00
      6  0.000000D+00  0.000000D+00 -0.488679D-01  0.000000D+00  0.000000D+00
      7 -0.395202D+00  0.148448D+00  0.000000D+00 -0.107081D-02  0.219737D-02
      8  0.140348D+00 -0.233198D+00  0.000000D+00  0.335736D-01 -0.103576D-01
      9  0.000000D+00  0.000000D+00 -0.466389D-01  0.000000D+00  0.000000D+00
     10 -0.266379D-01 -0.163995D-01  0.000000D+00  0.108332D-02  0.120838D-03
     11  0.160532D-01  0.144166D-01  0.000000D+00  0.101319D-02  0.760405D-03
     12  0.000000D+00  0.000000D+00 -0.628242D-02  0.000000D+00  0.000000D+00
     13  0.154080D-02  0.347388D-01  0.000000D+00 -0.383458D-02  0.901282D-03
     14  0.724827D-02 -0.100570D-01  0.000000D+00  0.108500D-02  0.159067D-02
     15  0.000000D+00  0.000000D+00  0.111289D-02  0.000000D+00  0.000000D+00
     16 -0.395202D+00 -0.148448D+00  0.000000D+00 -0.107081D-02 -0.219737D-02
     17 -0.140348D+00 -0.233198D+00  0.000000D+00 -0.335736D-01 -0.103576D-01
     18  0.000000D+00  0.000000D+00 -0.466389D-01  0.000000D+00  0.000000D+00
     19  0.154080D-02 -0.347388D-01  0.000000D+00 -0.383458D-02 -0.901281D-03
     20 -0.724827D-02 -0.100570D-01  0.000000D+00 -0.108500D-02  0.159067D-02
     21  0.000000D+00  0.000000D+00  0.111289D-02  0.000000D+00  0.000000D+00
     22 -0.266379D-01  0.163995D-01  0.000000D+00  0.108332D-02 -0.120839D-03
     23 -0.160532D-01  0.144166D-01  0.000000D+00 -0.101319D-02  0.760406D-03
     24  0.000000D+00  0.000000D+00 -0.628242D-02  0.000000D+00  0.000000D+00
                6             7             8             9            10 
      6  0.286831D-01
      7  0.000000D+00  0.859657D+00
      8  0.000000D+00 -0.170452D-01  0.815361D+00
      9  0.653512D-02  0.000000D+00  0.000000D+00  0.492091D-01
[...]
 
 
                                            Autjob by noodles.sh | Great noodly b
 asis sets
                                                            Raman Spectrum
 
     33  33          3                                                 1  1  1      11        1 11                                   
     55  44          1                                                 7  6  5      33        0 00          6  55 55                 
     88  76          3                                                 2  3  6      64        9 30          9  97 20                 
     10  73          1                                                 8  9  8      95        6 33          9  59 23                 
 
     XX  XX          X                                                 X  X  X      XX        X XX          X   X  X                 
     XX  X           X                                                              X         X                                      
     XX  X           X                                                                                                               
     X   X           X                                                                                                               
     X   X           X                                                                                                               
         X           X                                                                                                               
         X           X                                                                                                               
         X                                                                                                                           
         X                                                                                                                           
         X                                                                                                                           
         X                                                                                                                           
         X                                                                                                                           
         X                                                                                                                           
         X                                                                                                                           
         X                                                                                                                           
         X                                                                                                                           
         X                                                                                                                           
         X                                                                                                                           
         X                                                                                                                           
         X                                                                                                                           
 
 ***** Axes restored to original set *****
 -------------------------------------------------------------------
 Center     Atomic                   Forces (Hartrees/Bohr)
 Number     Number              X              Y              Z
 -------------------------------------------------------------------
      1        6           0.000000000   -0.000000683    0.000000000
      2        1           0.000000000    0.000000316    0.000000000
      3        7          -0.000000109    0.000000184    0.000000000
      4        1           0.000000022   -0.000000138    0.000000000
      5        1           0.000000041    0.000000137    0.000000000
      6        7           0.000000109    0.000000184    0.000000000
      7        1          -0.000000041    0.000000137    0.000000000
      8        1          -0.000000022   -0.000000138    0.000000000
 -------------------------------------------------------------------
 Cartesian Forces:  Max     0.000000683 RMS     0.000000175
 Force constants in Cartesian coordinates: 
                1             2             3             4             5 
      1  0.898666D+00
      2  0.000000D+00  0.785983D+00
      3  0.000000D+00  0.000000D+00  0.152499D+00
      4 -0.580901D-01  0.000000D+00  0.000000D+00  0.657328D-01
      5  0.000000D+00 -0.328321D+00  0.000000D+00  0.000000D+00  0.344336D+00
      6  0.000000D+00  0.000000D+00 -0.488832D-01  0.000000D+00  0.000000D+00
      7 -0.395191D+00  0.148440D+00  0.000000D+00 -0.107040D-02  0.219775D-02
      8  0.140344D+00 -0.233188D+00  0.000000D+00  0.335695D-01 -0.103585D-01
      9  0.000000D+00  0.000000D+00 -0.466379D-01  0.000000D+00  0.000000D+00
     10 -0.266378D-01 -0.163990D-01  0.000000D+00  0.108322D-02  0.120805D-03
     11  0.160523D-01  0.144159D-01  0.000000D+00  0.101344D-02  0.760295D-03
     12  0.000000D+00  0.000000D+00 -0.628303D-02  0.000000D+00  0.000000D+00
     13  0.154062D-02  0.347375D-01  0.000000D+00 -0.383418D-02  0.901364D-03
     14  0.724879D-02 -0.100582D-01  0.000000D+00  0.108495D-02  0.159077D-02
     15  0.000000D+00  0.000000D+00  0.111308D-02  0.000000D+00  0.000000D+00
     16 -0.395191D+00 -0.148440D+00  0.000000D+00 -0.107040D-02 -0.219775D-02
     17 -0.140344D+00 -0.233188D+00  0.000000D+00 -0.335695D-01 -0.103585D-01
     18  0.000000D+00  0.000000D+00 -0.466379D-01  0.000000D+00  0.000000D+00
     19  0.154062D-02 -0.347375D-01  0.000000D+00 -0.383418D-02 -0.901364D-03
     20 -0.724879D-02 -0.100582D-01  0.000000D+00 -0.108495D-02  0.159077D-02
     21  0.000000D+00  0.000000D+00  0.111308D-02  0.000000D+00  0.000000D+00
     22 -0.266378D-01  0.163990D-01  0.000000D+00  0.108322D-02 -0.120806D-03
     23 -0.160523D-01  0.144159D-01  0.000000D+00 -0.101344D-02  0.760295D-03
     24  0.000000D+00  0.000000D+00 -0.628303D-02  0.000000D+00  0.000000D+00
                6             7             8             9            10 
      6  0.287009D-01
      7  0.000000D+00  0.859610D+00
      8  0.000000D+00 -0.170523D-01  0.815285D+00
      9  0.653409D-02  0.000000D+00  0.000000D+00  0.492217D-01
     10  0.000000D+00 -0.317784D+00 -0.168370D+00  0.000000D+00  0.332737D+00
     11  0.000000D+00 -0.172475D+00 -0.182676D+00  0.000000D+00  0.175144D+00
     12 -0.381942D-02  0.000000D+00  0.000000D+00 -0.855422D-02  0.000000D+00
     13  0.000000D+00 -0.731361D-01  0.288961D-01  0.000000D+00  0.956648D-02
     14  0.000000D+00  0.274078D-01 -0.418968D+00  0.000000D+00  0.504393D-02
     15  0.737648D-02  0.000000D+00  0.000000D+00 -0.149331D-01  0.000000D+00
     16  0.000000D+00 -0.764335D-01 -0.127256D-01  0.000000D+00  0.179877D-02
     17  0.000000D+00  0.127256D-01  0.304984D-01  0.000000D+00  0.513553D-02
     18  0.653409D-02  0.000000D+00  0.000000D+00  0.123018D-01  0.000000D+00
     19  0.000000D+00  0.220574D-02  0.474559D-03  0.000000D+00 -0.100467D-03
     20  0.000000D+00  0.492756D-02  0.846792D-03  0.000000D+00 -0.190643D-03
     21  0.737648D-02  0.000000D+00  0.000000D+00 -0.352741D-02  0.000000D+00
     22  0.000000D+00  0.179877D-02 -0.513553D-02  0.000000D+00 -0.663313D-03
     23  0.000000D+00 -0.617172D-02 -0.143887D-02  0.000000D+00 -0.484224D-03
     24 -0.381942D-02  0.000000D+00  0.000000D+00  0.559499D-02  0.000000D+00
               11            12            13            14            15 
     11  0.177535D+00
     12  0.000000D+00  0.118664D-01
     13 -0.266343D-01  0.000000D+00  0.652853D-01
     14 -0.891635D-02  0.000000D+00 -0.366157D-01  0.435345D+00
     15  0.000000D+00 -0.140550D-02  0.000000D+00  0.000000D+00  0.118728D-01
     16  0.617172D-02  0.000000D+00  0.220574D-02 -0.492756D-02  0.000000D+00
     17 -0.143887D-02  0.000000D+00 -0.474559D-03  0.846792D-03  0.000000D+00
     18  0.000000D+00  0.559499D-02  0.000000D+00  0.000000D+00 -0.352741D-02
     19  0.243239D-03  0.000000D+00 -0.152747D-02  0.567225D-03  0.000000D+00
     20 -0.504803D-03  0.000000D+00 -0.567225D-03  0.665135D-03  0.000000D+00
     21  0.000000D+00 -0.556791D-03  0.000000D+00  0.000000D+00  0.603921D-04
     22  0.484224D-03  0.000000D+00 -0.100467D-03  0.190643D-03  0.000000D+00
     23  0.824767D-03  0.000000D+00 -0.243239D-03 -0.504803D-03  0.000000D+00
     24  0.000000D+00  0.315755D-02  0.000000D+00  0.000000D+00 -0.556791D-03
               16            17            18            19            20 
     16  0.859610D+00
     17  0.170523D-01  0.815285D+00
     18  0.000000D+00  0.000000D+00  0.492217D-01
     19 -0.731361D-01 -0.288961D-01  0.000000D+00  0.652853D-01
     20 -0.274078D-01 -0.418968D+00  0.000000D+00  0.366157D-01  0.435345D+00
     21  0.000000D+00  0.000000D+00 -0.149331D-01  0.000000D+00  0.000000D+00
     22 -0.317784D+00  0.168370D+00  0.000000D+00  0.956648D-02 -0.504393D-02
     23  0.172475D+00 -0.182676D+00  0.000000D+00  0.266343D-01 -0.891635D-02
     24  0.000000D+00  0.000000D+00 -0.855422D-02  0.000000D+00  0.000000D+00
               21            22            23            24 
     21  0.118728D-01
     22  0.000000D+00  0.332737D+00
     23  0.000000D+00 -0.175144D+00  0.177535D+00
     24 -0.140550D-02  0.000000D+00  0.000000D+00  0.118664D-01
 Red2BG is reusing G-inverse.
 Force constants in internal coordinates: 
                1             2             3             4             5 
      1  0.344336D+00
      2  0.653505D-02  0.584880D+00
      3  0.653505D-02  0.502295D-01  0.584880D+00
      4  0.513704D-03  0.570250D-02 -0.553721D-02  0.446697D+00
      5 -0.149026D-02  0.885260D-02 -0.321735D-02 -0.622999D-04  0.438924D+00
      6 -0.149026D-02 -0.321735D-02  0.885260D-02  0.427051D-03  0.790289D-03
      7  0.513705D-03 -0.553722D-02  0.570250D-02  0.268825D-03  0.427051D-03
      8  0.362477D-02  0.801873D-02 -0.327455D-01 -0.242424D-02  0.385971D-02
      9  0.362478D-02 -0.327455D-01  0.801873D-02  0.584794D-03  0.824260D-03
     10 -0.724955D-02  0.247268D-01  0.247268D-01  0.183945D-02 -0.468397D-02
     11 -0.141351D-02  0.167615D-01  0.372254D-02  0.222481D-02 -0.826721D-02
     12  0.172596D-02  0.746446D-02 -0.146949D-02 -0.729703D-02  0.241040D-02
     13 -0.312454D-03 -0.242260D-01 -0.225305D-02  0.507222D-02  0.585681D-02
     14  0.172596D-02 -0.146949D-02  0.746446D-02 -0.199624D-03  0.101150D-02
     15 -0.141351D-02  0.372254D-02  0.167615D-01  0.221743D-03 -0.786222D-03
     16 -0.312453D-03 -0.225305D-02 -0.242260D-01 -0.221192D-04 -0.225274D-03
     17  0.000000D+00  0.000000D+00  0.000000D+00  0.000000D+00  0.000000D+00
     18  0.000000D+00  0.000000D+00  0.000000D+00  0.000000D+00  0.000000D+00
     19  0.000000D+00  0.000000D+00  0.000000D+00  0.000000D+00  0.000000D+00
     20  0.000000D+00  0.000000D+00  0.000000D+00  0.000000D+00  0.000000D+00
     21  0.000000D+00  0.000000D+00  0.000000D+00  0.000000D+00  0.000000D+00
     22  0.000000D+00  0.000000D+00  0.000000D+00  0.000000D+00  0.000000D+00
     23  0.000000D+00  0.000000D+00  0.000000D+00  0.000000D+00  0.000000D+00
     24  0.000000D+00  0.000000D+00  0.000000D+00  0.000000D+00  0.000000D+00
                6             7             8             9            10 
      6  0.438924D+00
      7 -0.622997D-04  0.446697D+00
      8  0.824259D-03  0.584794D-03  0.106238D+00
      9  0.385971D-02 -0.242424D-02 -0.336245D-01  0.106238D+00
     10 -0.468397D-02  0.183945D-02 -0.726136D-01 -0.726136D-01  0.145227D+00
     11 -0.786222D-03  0.221743D-03 -0.789009D-02 -0.368578D-02  0.115759D-01
     12  0.101150D-02 -0.199624D-03  0.904541D-02 -0.407648D-03 -0.863776D-02
     13 -0.225273D-03 -0.221191D-04 -0.115532D-02  0.409343D-02 -0.293812D-02
     14  0.241040D-02 -0.729703D-02 -0.407649D-03  0.904541D-02 -0.863776D-02
     15 -0.826721D-02  0.222481D-02 -0.368578D-02 -0.789009D-02  0.115759D-01
     16  0.585681D-02  0.507222D-02  0.409343D-02 -0.115532D-02 -0.293812D-02
     17  0.000000D+00  0.000000D+00  0.000000D+00  0.000000D+00  0.000000D+00
     18  0.000000D+00  0.000000D+00  0.000000D+00  0.000000D+00  0.000000D+00
     19  0.000000D+00  0.000000D+00  0.000000D+00  0.000000D+00  0.000000D+00
     20  0.000000D+00  0.000000D+00  0.000000D+00  0.000000D+00  0.000000D+00
     21  0.000000D+00  0.000000D+00  0.000000D+00  0.000000D+00  0.000000D+00
     22  0.000000D+00  0.000000D+00  0.000000D+00  0.000000D+00  0.000000D+00
     23  0.000000D+00  0.000000D+00  0.000000D+00  0.000000D+00  0.000000D+00
     24  0.000000D+00  0.000000D+00  0.000000D+00  0.000000D+00  0.000000D+00
               11            12            13            14            15 
     11  0.828341D-01
     12 -0.444335D-01  0.808484D-01
     13 -0.384006D-01 -0.364149D-01  0.748155D-01
     14 -0.155650D-02  0.233103D-02 -0.774523D-03  0.808484D-01
     15  0.209692D-02 -0.155650D-02 -0.540413D-03 -0.444335D-01  0.828341D-01
     16 -0.540413D-03 -0.774523D-03  0.131494D-02 -0.364149D-01 -0.384006D-01
     17  0.000000D+00  0.000000D+00  0.000000D+00  0.000000D+00  0.000000D+00
     18  0.000000D+00  0.000000D+00  0.000000D+00  0.000000D+00  0.000000D+00
     19  0.000000D+00  0.000000D+00  0.000000D+00  0.000000D+00  0.000000D+00
     20  0.000000D+00  0.000000D+00  0.000000D+00  0.000000D+00  0.000000D+00
     21  0.000000D+00  0.000000D+00  0.000000D+00  0.000000D+00  0.000000D+00
     22  0.000000D+00  0.000000D+00  0.000000D+00  0.000000D+00  0.000000D+00
     23  0.000000D+00  0.000000D+00  0.000000D+00  0.000000D+00  0.000000D+00
     24  0.000000D+00  0.000000D+00  0.000000D+00  0.000000D+00  0.000000D+00
               16            17            18            19            20 
     16  0.748155D-01
     17  0.000000D+00  0.972287D-02
     18  0.000000D+00  0.436907D-02  0.130625D-01
     19  0.000000D+00  0.378201D-02 -0.543861D-02  0.156287D-01
     20  0.000000D+00 -0.157179D-02  0.325482D-02  0.640808D-02  0.112347D-01
     21  0.000000D+00 -0.380236D-02 -0.540005D-02  0.600532D-02  0.440763D-02
     22  0.000000D+00 -0.368315D-02 -0.380236D-02  0.225771D-02  0.213850D-02
     23  0.000000D+00  0.213850D-02  0.440763D-02 -0.584137D-02 -0.357224D-02
     24  0.000000D+00  0.225771D-02  0.600532D-02 -0.958898D-02 -0.584137D-02
               21            22            23            24 
     21  0.130625D-01
     22  0.436907D-02  0.972287D-02
     23  0.325482D-02 -0.157179D-02  0.112347D-01
     24 -0.543861D-02  0.378201D-02  0.640808D-02  0.156287D-01
 Leave Link  716 at Thu Feb 26 00:53:39 2015, MaxMem= 1073741824 cpu:       0.1
 (Enter /apps/gaussian/g09_c01/g09/l9999.exe)
 1\1\GINC-CX1-25-1-2\Freq\RPBEPBE\Aug-CC-pVTZ\C1H5N2(1+)\JMF02\26-Feb-2
 015\0\\#p opt(VeryTight,CalcAll,Raman) Integral(Grid=UltraFine) PBEPBE
 /AUG-cc-pVTZ\\Autjob by noodles.sh | Great noodly basis sets\\1,1\C,0.
 ,0.4271814767,0.\H,0.,1.5188033799,0.\N,1.1688209861,-0.1763992922,0.\
 H,2.0227123333,0.3745307913,0.\H,1.2729451721,-1.1893609275,0.\N,-1.16
 88209861,-0.1763992922,0.\H,-1.2729451721,-1.1893609275,0.\H,-2.022712
 3333,0.3745307913,0.\\Version=EM64L-G09RevC.01\State=1-A1\HF=-150.2618
 529\RMSD=8.216e-09\RMSF=1.752e-07\ZeroPoint=0.070419\Thermal=0.0742496
 \Dipole=0.,-0.1102099,0.\DipoleDeriv=1.7726826,0.,0.,0.,0.3452855,0.,0
 .,0.,0.2459931,0.085626,0.,0.,0.,0.1394272,0.,0.,0.,0.1579221,-1.00341
 19,0.0390053,0.,0.4233395,-0.2360303,0.,0.,0.,-0.3411623,0.3806432,0.0
 528016,0.,0.1040996,0.2107495,0.,0.,0.,0.3185201,0.1936144,-0.0578284,
 0.,-0.1122817,0.2829246,0.,0.,0.,0.3206846,-1.0034119,-0.0390053,0.,-0
 .4233395,-0.2360303,0.,0.,0.,-0.3411623,0.1936144,0.0578284,0.,0.11228
 17,0.2829246,0.,0.,0.,0.3206846,0.3806432,-0.0528016,0.,-0.1040996,0.2
 107495,0.,0.,0.,0.3185201\Polar=38.357358,0.,25.7395518,0.,0.,18.69796
 98\PolarDeriv=0.0000007,1.4268855,-0.0000002,0.,0.,0.,5.5839717,0.,-3.
 8923481,0.,0.,1.4399567,0.,0.,0.,0.,1.4052042,0.,0.,0.9208788,0.,0.,0.
 ,0.,1.0246113,0.,7.5513282,0.,0.,1.2813428,0.,0.,0.,0.,0.8965009,0.,3.
 0069941,-1.3045213,-0.496801,0.,0.,1.6704503,-3.5770969,-0.27213,3.213
 7848,0.,0.,-0.8371605,0.,0.,0.,3.6540962,-0.8308641,0.,6.94173,1.21791
 22,1.7276724,0.,0.,0.940069,2.6612368,1.8604496,1.3097833,0.,0.,0.5605
 083,0.,0.,0.,0.4111549,0.2269255,0.,2.0789507,-1.0872731,0.5181616,0.,
 0.,0.2136864,-2.3884311,2.2600567,-6.3530583,0.,0.,-1.0839976,0.,0.,0.
 ,0.0776003,-0.5469139,0.,-3.0069941,-1.3045213,0.496801,0.,0.,-1.67045
 03,-3.5770969,0.27213,3.2137848,0.,0.,-0.8371605,0.,0.,0.,-3.6540962,-
 0.8308641,0.,-2.0789507,-1.0872731,-0.5181616,0.,0.,-0.2136864,-2.3884
 311,-2.2600567,-6.3530583,0.,0.,-1.0839976,0.,0.,0.,-0.0776003,-0.5469
 139,0.,-6.94173,1.2179122,-1.7276724,0.,0.,-0.940069,2.6612368,-1.8604
 496,1.3097833,0.,0.,0.5605083,0.,0.,0.,-0.4111549,0.2269255,0.\HyperPo
 lar=0.,23.5904044,0.,-8.8504527,0.,0.,0.,0.,-0.3672631,0.\PG=C02V [C2(
 C1H1),SGV(H4N2)]\NImag=0\\0.89866567,0.,0.78598267,0.,0.,0.15249884,-0
 .05809011,0.,0.,0.06573284,0.,-0.32832103,0.,0.,0.34433591,0.,0.,-0.04
 888320,0.,0.,0.02870089,-0.39519065,0.14843980,0.,-0.00107040,0.002197
 75,0.,0.85961029,0.14034354,-0.23318848,0.,0.03356949,-0.01035850,0.,-
 0.01705227,0.81528529,0.,0.,-0.04663788,0.,0.,0.00653409,0.,0.,0.04922
 174,-0.02663775,-0.01639904,0.,0.00108322,0.00012081,0.,-0.31778419,-0
 .16837029,0.,0.33273725,0.01605227,0.01441587,0.,0.00101344,0.00076030
 ,0.,-0.17247454,-0.18267634,0.,0.17514393,0.17753544,0.,0.,-0.00628303
 ,0.,0.,-0.00381942,0.,0.,-0.00855422,0.,0.,0.01186642,0.00154062,0.034
 73754,0.,-0.00383418,0.00090136,0.,-0.07313606,0.02889615,0.,0.0095664
 8,-0.02663428,0.,0.06528534,0.00724879,-0.01005820,0.,0.00108495,0.001
 59077,0.,0.02740777,-0.41896832,0.,0.00504393,-0.00891635,0.,-0.036615
 74,0.43534499,0.,0.,0.00111308,0.,0.,0.00737648,0.,0.,-0.01493307,0.,0
 .,-0.00140550,0.,0.,0.01187282,-0.39519065,-0.14843980,0.,-0.00107040,
 -0.00219775,0.,-0.07643348,-0.01272564,0.,0.00179877,0.00617172,0.,0.0
 0220574,-0.00492756,0.,0.85961029,-0.14034353,-0.23318849,0.,-0.033569
 49,-0.01035850,0.,0.01272564,0.03049844,0.,0.00513553,-0.00143887,0.,-
 0.00047456,0.00084679,0.,0.01705227,0.81528529,0.,0.,-0.04663788,0.,0.
 ,0.00653409,0.,0.,0.01230177,0.,0.,0.00559499,0.,0.,-0.00352741,0.,0.,
 0.04922174,0.00154062,-0.03473754,0.,-0.00383418,-0.00090136,0.,0.0022
 0574,0.00047456,0.,-0.00010047,0.00024324,0.,-0.00152747,0.00056723,0.
 ,-0.07313606,-0.02889615,0.,0.06528534,-0.00724879,-0.01005820,0.,-0.0
 0108495,0.00159077,0.,0.00492756,0.00084679,0.,-0.00019064,-0.00050480
 ,0.,-0.00056723,0.00066514,0.,-0.02740777,-0.41896832,0.,0.03661574,0.
 43534499,0.,0.,0.00111308,0.,0.,0.00737648,0.,0.,-0.00352741,0.,0.,-0.
 00055679,0.,0.,0.00006039,0.,0.,-0.01493307,0.,0.,0.01187282,-0.026637
 75,0.01639904,0.,0.00108322,-0.00012081,0.,0.00179877,-0.00513553,0.,-
 0.00066331,0.00048422,0.,-0.00010047,0.00019064,0.,-0.31778419,0.16837
 029,0.,0.00956648,-0.00504393,0.,0.33273725,-0.01605227,0.01441587,0.,
 -0.00101344,0.00076030,0.,-0.00617172,-0.00143887,0.,-0.00048422,0.000
 82477,0.,-0.00024324,-0.00050480,0.,0.17247454,-0.18267634,0.,0.026634
 28,-0.00891635,0.,-0.17514393,0.17753544,0.,0.,-0.00628303,0.,0.,-0.00
 381942,0.,0.,0.00559499,0.,0.,0.00315755,0.,0.,-0.00055679,0.,0.,-0.00
 855422,0.,0.,-0.00140550,0.,0.,0.01186642\\0.,0.00000068,0.,0.,-0.0000
 0032,0.,0.00000011,-0.00000018,0.,-0.00000002,0.00000014,0.,-0.0000000
 4,-0.00000014,0.,-0.00000011,-0.00000018,0.,0.00000004,-0.00000014,0.,
 0.00000002,0.00000014,0.\\\@


 In the beginning there was nothing, which exploded.
 Job cpu time:  0 days  1 hours 47 minutes 30.0 seconds.
 File lengths (MBytes):  RWF=     53 Int=      0 D2E=      0 Chk=      5 Scr=      1
 Normal termination of Gaussian 09 at Thu Feb 26 00:53:39 2015.
