 Entering Gaussian System, Link 0=g03
 Input=FORMA_PBEPBE_6-31gs.com
 Output=FORMA_PBEPBE_6-31gs.log
 Initial command:
 /apps/gaussian/g09_c01/g09/l1.exe /tmp/pbs.8910287.cx1b/Gau-24810.inp -scrdir=/tmp/pbs.8910287.cx1b/
 Entering Link 1 = /apps/gaussian/g09_c01/g09/l1.exe PID=     24812.
  
 Copyright (c) 1988,1990,1992,1993,1995,1998,2003,2009,2011,
            Gaussian, Inc.  All Rights Reserved.
  
 This is part of the Gaussian(R) 09 program.  It is based on
 the Gaussian(R) 03 system (copyright 2003, Gaussian, Inc.),
 the Gaussian(R) 98 system (copyright 1998, Gaussian, Inc.),
 the Gaussian(R) 94 system (copyright 1995, Gaussian, Inc.),
 the Gaussian 92(TM) system (copyright 1992, Gaussian, Inc.),
 the Gaussian 90(TM) system (copyright 1990, Gaussian, Inc.),
 the Gaussian 88(TM) system (copyright 1988, Gaussian, Inc.),
 the Gaussian 86(TM) system (copyright 1986, Carnegie Mellon
 University), and the Gaussian 82(TM) system (copyright 1983,
 Carnegie Mellon University). Gaussian is a federally registered
 trademark of Gaussian, Inc.
  
 This software contains proprietary and confidential information,
 including trade secrets, belonging to Gaussian, Inc.
  
 This software is provided under written license and may be
 used, copied, transmitted, or stored only in accord with that
 written license.
  
 The following legend is applicable only to US Government
 contracts under FAR:
  
                    RESTRICTED RIGHTS LEGEND
  
 Use, reproduction and disclosure by the US Government is
 subject to restrictions as set forth in subparagraphs (a)
 and (c) of the Commercial Computer Software - Restricted
 Rights clause in FAR 52.227-19.
  
 Gaussian, Inc.
 340 Quinnipiac St., Bldg. 40, Wallingford CT 06492
  
  
 ---------------------------------------------------------------
 Warning -- This program may not be used in any manner that
 competes with the business of Gaussian, Inc. or will provide
 assistance to any competitor of Gaussian, Inc.  The licensee
 of this program is prohibited from giving any competitor of
 Gaussian, Inc. access to this program.  By using this program,
 the user acknowledges that Gaussian, Inc. is engaged in the
 business of creating and licensing software in the field of
 computational chemistry and represents and warrants to the
 licensee that it is not a competitor of Gaussian, Inc. and that
 it will not use this program in any manner prohibited above.
 ---------------------------------------------------------------
  

 Cite this work as:
 Gaussian 09, Revision C.01,
 M. J. Frisch, G. W. Trucks, H. B. Schlegel, G. E. Scuseria, 
 M. A. Robb, J. R. Cheeseman, G. Scalmani, V. Barone, B. Mennucci, 
 G. A. Petersson, H. Nakatsuji, M. Caricato, X. Li, H. P. Hratchian, 
 A. F. Izmaylov, J. Bloino, G. Zheng, J. L. Sonnenberg, M. Hada, 
 M. Ehara, K. Toyota, R. Fukuda, J. Hasegawa, M. Ishida, T. Nakajima, 
 Y. Honda, O. Kitao, H. Nakai, T. Vreven, J. A. Montgomery, Jr., 
 J. E. Peralta, F. Ogliaro, M. Bearpark, J. J. Heyd, E. Brothers, 
 K. N. Kudin, V. N. Staroverov, T. Keith, R. Kobayashi, J. Normand, 
 K. Raghavachari, A. Rendell, J. C. Burant, S. S. Iyengar, J. Tomasi, 
 M. Cossi, N. Rega, J. M. Millam, M. Klene, J. E. Knox, J. B. Cross, 
 V. Bakken, C. Adamo, J. Jaramillo, R. Gomperts, R. E. Stratmann, 
 O. Yazyev, A. J. Austin, R. Cammi, C. Pomelli, J. W. Ochterski, 
 R. L. Martin, K. Morokuma, V. G. Zakrzewski, G. A. Voth, 
 P. Salvador, J. J. Dannenberg, S. Dapprich, A. D. Daniels, 
 O. Farkas, J. B. Foresman, J. V. Ortiz, J. Cioslowski, 
 and D. J. Fox, Gaussian, Inc., Wallingford CT, 2010.
 
 ******************************************
 Gaussian 09:  EM64L-G09RevC.01 23-Sep-2011
                26-Feb-2015 
 ******************************************
 %Chk=FORMA_PBEPBE_6-31gs.chk
 %Mem=8Gb
 %nproc=8
 Will use up to    8 processors via shared memory.
 ----------------------------------------------------------------------
 #p opt(VeryTight,CalcAll,Raman) Integral(Grid=UltraFine) PBEPBE/6-31g*
 ----------------------------------------------------------------------
 1/7=1,10=4,14=-1,18=20,19=15,26=3,38=1/1,3;
 2/9=110,12=2,17=6,18=5,40=1/2;
 3/5=1,6=6,7=1,11=2,16=1,25=1,30=1,71=2,74=1009,75=-5/1,2,3;
 4//1;
 5/5=2,38=5/2;
 8/6=4,10=90,11=11/1;
 10/13=10,15=4/2;
 11/6=3,8=1,9=11,15=111,16=1/1,2,10;
 10/6=1/2;
 6/7=2,8=2,9=2,10=2,18=1,28=1/1;
 7/10=1,25=1/1,2,3,16;
 1/7=1,10=4,14=-1,18=20,19=15/3(3);
 2/9=110/2;
 7/8=1,9=1,25=1,44=-1/16;
 99//99;
 2/9=110/2;
 3/5=1,6=6,7=1,11=2,16=1,25=1,30=1,71=2,74=1009,75=-5/1,2,3;
 4/5=5,16=3/1;
 5/5=2,38=5/2;
 8/6=4,10=90,11=11/1;
 10/13=10,15=4/2;
 11/6=3,8=1,9=11,15=111,16=1/1,2,10;
 10/6=1/2;
 7/10=1,25=1/1,2,3,16;
 1/7=1,10=4,14=-1,18=20,19=15/3(-9);
 2/9=110/2;
 6/7=2,8=2,9=2,10=2,18=1,19=2,28=1/1;
 7/8=1,9=1,25=1,44=-1/16;
 99//99;
 Leave Link    1 at Thu Feb 26 00:33:17 2015, MaxMem= 1073741824 cpu:       0.3
 (Enter /apps/gaussian/g09_c01/g09/l101.exe)
 ----------------------------------------------
 Autjob by noodles.sh | Great noodly basis sets
 ----------------------------------------------
 Charge =  1 Multiplicity = 1
 Symbolic Z-Matrix:
 C                     0.        0.42727   0. 
 H                     0.        1.51386   0. 
 N                     1.16818  -0.17499   0. 
 H                     2.0221    0.37151   0. 
 H                     1.27341  -1.18533   0. 
 N                    -1.16818  -0.17499   0. 
 H                    -1.27341  -1.18533   0. 
 H                    -2.0221    0.37151   0. 
 
 NAtoms=      8 NQM=        0 NQMF=       0 NMMI=      8 NMMIF=      0
                NMic=       0 NMicF=      0.
                    Isotopes and Nuclear Properties:
 (Nuclear quadrupole moments (NQMom) in fm**2, nuclear magnetic moments (NMagM)
  in nuclear magnetons)

  Atom         1           2           3           4           5           6           7           8
 IAtWgt=          12           1          14           1           1          14           1           1
 AtmWgt=  12.0000000   1.0078250  14.0030740   1.0078250   1.0078250  14.0030740   1.0078250   1.0078250
 NucSpn=           0           1           2           1           1           2           1           1
 AtZEff=   0.0000000   0.0000000   0.0000000   0.0000000   0.0000000   0.0000000   0.0000000   0.0000000
 NQMom=    0.0000000   0.0000000   2.0440000   0.0000000   0.0000000   2.0440000   0.0000000   0.0000000
 NMagM=    0.0000000   2.7928460   0.4037610   2.7928460   2.7928460   0.4037610   2.7928460   2.7928460
 Leave Link  101 at Thu Feb 26 00:33:17 2015, MaxMem= 1073741824 cpu:       0.9
 (Enter /apps/gaussian/g09_c01/g09/l103.exe)

 GradGradGradGradGradGradGradGradGradGradGradGradGradGradGradGradGradGrad
 Berny optimization.
 Initialization pass.
                           ----------------------------
                           !    Initial Parameters    !
                           ! (Angstroms and Degrees)  !
 --------------------------                            --------------------------
 ! Name  Definition              Value          Derivative Info.                !
 --------------------------------------------------------------------------------
 ! R1    R(1,2)                  1.0866         calculate D2E/DX2 analytically  !
 ! R2    R(1,3)                  1.3143         calculate D2E/DX2 analytically  !
 ! R3    R(1,6)                  1.3143         calculate D2E/DX2 analytically  !
 ! R4    R(3,4)                  1.0138         calculate D2E/DX2 analytically  !
 ! R5    R(3,5)                  1.0158         calculate D2E/DX2 analytically  !
 ! R6    R(6,7)                  1.0158         calculate D2E/DX2 analytically  !
 ! R7    R(6,8)                  1.0138         calculate D2E/DX2 analytically  !
 ! A1    A(2,1,3)              117.2736         calculate D2E/DX2 analytically  !
 ! A2    A(2,1,6)              117.2736         calculate D2E/DX2 analytically  !
 ! A3    A(3,1,6)              125.4529         calculate D2E/DX2 analytically  !
 ! A4    A(1,3,4)              120.1077         calculate D2E/DX2 analytically  !
 ! A5    A(1,3,5)              123.2199         calculate D2E/DX2 analytically  !
 ! A6    A(4,3,5)              116.6724         calculate D2E/DX2 analytically  !
 ! A7    A(1,6,7)              123.2199         calculate D2E/DX2 analytically  !
 ! A8    A(1,6,8)              120.1077         calculate D2E/DX2 analytically  !
 ! A9    A(7,6,8)              116.6724         calculate D2E/DX2 analytically  !
 ! D1    D(2,1,3,4)              0.0            calculate D2E/DX2 analytically  !
 ! D2    D(2,1,3,5)            180.0            calculate D2E/DX2 analytically  !
 ! D3    D(6,1,3,4)            180.0            calculate D2E/DX2 analytically  !
 ! D4    D(6,1,3,5)              0.0            calculate D2E/DX2 analytically  !
 ! D5    D(2,1,6,7)            180.0            calculate D2E/DX2 analytically  !
 ! D6    D(2,1,6,8)              0.0            calculate D2E/DX2 analytically  !
 ! D7    D(3,1,6,7)              0.0            calculate D2E/DX2 analytically  !
 ! D8    D(3,1,6,8)            180.0            calculate D2E/DX2 analytically  !
 --------------------------------------------------------------------------------
 Trust Radius=3.00D-01 FncErr=1.00D-07 GrdErr=1.00D-06
 Number of steps in this run=     34 maximum allowed number of steps=    100.
 GradGradGradGradGradGradGradGradGradGradGradGradGradGradGradGradGradGrad

 Leave Link  103 at Thu Feb 26 00:33:17 2015, MaxMem= 1073741824 cpu:       0.0
 (Enter /apps/gaussian/g09_c01/g09/l202.exe)
                          Input orientation:                          
 ---------------------------------------------------------------------
 Center     Atomic      Atomic             Coordinates (Angstroms)
 Number     Number       Type             X           Y           Z
 ---------------------------------------------------------------------
      1          6           0        0.000000    0.427270    0.000000
      2          1           0        0.000000    1.513864    0.000000
      3          7           0        1.168180   -0.174990    0.000000
      4          1           0        2.022103    0.371511    0.000000
      5          1           0        1.273414   -1.185325    0.000000
      6          7           0       -1.168180   -0.174990    0.000000
      7          1           0       -1.273414   -1.185325    0.000000
      8          1           0       -2.022103    0.371511    0.000000
 ---------------------------------------------------------------------
                    Distance matrix (angstroms):
                    1          2          3          4          5
     1  C    0.000000
     2  H    1.086594   0.000000
     3  N    1.314291   2.053502   0.000000
     4  H    2.022872   2.322471   1.013828   0.000000
     5  H    2.054762   2.984494   1.015801   1.727505   0.000000
     6  N    1.314291   2.053502   2.336360   3.236753   2.642377
     7  H    2.054762   2.984494   2.642377   3.644746   2.546828
     8  H    2.022872   2.322471   3.236753   4.044206   3.644746
                    6          7          8
     6  N    0.000000
     7  H    1.015801   0.000000
     8  H    1.013828   1.727505   0.000000
 Stoichiometry    CH5N2(1+)
 Framework group  C2V[C2(CH),SGV(H4N2)]
 Deg. of freedom     7
 Full point group                 C2V     NOp   4
 Largest Abelian subgroup         C2V     NOp   4
 Largest concise Abelian subgroup C2      NOp   2
                         Standard orientation:                         
 ---------------------------------------------------------------------
 Center     Atomic      Atomic             Coordinates (Angstroms)
 Number     Number       Type             X           Y           Z
 ---------------------------------------------------------------------
      1          6           0        0.000000    0.000000    0.427270
      2          1           0        0.000000    0.000000    1.513864
      3          7           0        0.000000    1.168180   -0.174990
      4          1           0        0.000000    2.022103    0.371511
      5          1           0        0.000000    1.273414   -1.185325
      6          7           0        0.000000   -1.168180   -0.174990
      7          1           0        0.000000   -1.273414   -1.185325
      8          1           0        0.000000   -2.022103    0.371511
 ---------------------------------------------------------------------
 Rotational constants (GHZ):     59.6815563     10.1627081      8.6839806
 Leave Link  202 at Thu Feb 26 00:33:17 2015, MaxMem= 1073741824 cpu:       0.0
 (Enter /apps/gaussian/g09_c01/g09/l301.exe)
 Standard basis: 6-31G(d) (6D, 7F)
 Ernie: Thresh=  0.10000D-02 Tol=  0.10000D-05 Strict=F.
 There are    25 symmetry adapted basis functions of A1  symmetry.
 There are     5 symmetry adapted basis functions of A2  symmetry.
 There are     7 symmetry adapted basis functions of B1  symmetry.
 There are    18 symmetry adapted basis functions of B2  symmetry.
 Integral buffers will be    131072 words long.
 Raffenetti 2 integral format.
 Two-electron integral symmetry is turned on.
    55 basis functions,   104 primitive gaussians,    55 cartesian basis functions
    12 alpha electrons       12 beta electrons
       nuclear repulsion energy        79.4241064683 Hartrees.
 IExCor= 1009 DFT=T Ex=PBE Corr=PBE ExCW=0 ScaHFX=  0.000000
 ScaDFX=  1.000000  1.000000  1.000000  1.000000 ScalE2=  1.000000  1.000000
 IRadAn=      5 IRanWt=     -1 IRanGd=            0 ICorTp=0
 NAtoms=    8 NActive=    8 NUniq=    5 SFac= 2.56D+00 NAtFMM=   60 NAOKFM=F Big=F
 Leave Link  301 at Thu Feb 26 00:33:17 2015, MaxMem= 1073741824 cpu:       0.3
 (Enter /apps/gaussian/g09_c01/g09/l302.exe)
 NPDir=0 NMtPBC=     1 NCelOv=     1 NCel=       1 NClECP=     1 NCelD=      1
         NCelK=      1 NCelE2=     1 NClLst=     1 CellRange=     0.0.
 One-electron integrals computed using PRISM.
 One-electron integral symmetry used in STVInt
 NBasis=    55 RedAO= T  NBF=    25     5     7    18
 NBsUse=    55 1.00D-06 NBFU=    25     5     7    18
 Precomputing XC quadrature grid using
 IXCGrd= 2 IRadAn=           5 IRanWt=          -1 IRanGd=           0 AccXCQ= 0.00D+00.
 NRdTot=     653 NPtTot=      174592 NUsed=      179280 NTot=      179312
 NSgBfM=    55    55    55    55    55 NAtAll=     8     8.
 Leave Link  302 at Thu Feb 26 00:33:17 2015, MaxMem= 1073741824 cpu:       1.1
 (Enter /apps/gaussian/g09_c01/g09/l303.exe)
 DipDrv:  MaxL=1.
 Leave Link  303 at Thu Feb 26 00:33:17 2015, MaxMem= 1073741824 cpu:       0.2
 (Enter /apps/gaussian/g09_c01/g09/l401.exe)
 Harris functional with IExCor= 1009 diagonalized for initial guess.
 ExpMin= 1.61D-01 ExpMax= 4.17D+03 ExpMxC= 6.27D+02 IAcc=3 IRadAn=         5 AccDes= 0.00D+00
 HarFok:  IExCor= 1009 AccDes= 0.00D+00 IRadAn=         5 IDoV= 1
 ScaDFX=  1.000000  1.000000  1.000000  1.000000
 FoFCou: FMM=F IPFlag=           0 FMFlag=      100000 FMFlg1=           0
         NFxFlg=           0 DoJE=T BraDBF=F KetDBF=T FulRan=T
         Omega=  0.000000  0.000000  1.000000  0.000000  0.000000 ICntrl=     500 IOpCl=  0
         NMat0=    1 NMatS0=    1 NMatT0=    0 NMatD0=    1 NMtDS0=    0 NMtDT0=    0
         I1Cent=           4 NGrid=           0.
 Petite list used in FoFCou.
 Harris En= -150.269280987641    
 Initial guess orbital symmetries:
       Occupied  (A1) (B2) (A1) (A1) (B2) (A1) (A1) (B2) (B2) (A1)
                 (B1) (A2)
       Virtual   (B1) (A1) (A1) (B2) (B2) (A1) (A1) (B2) (B2) (B1)
                 (A1) (A1) (A1) (A2) (B1) (B2) (A1) (B2) (A1) (A1)
                 (B2) (B2) (A1) (B2) (A2) (B1) (A1) (A2) (B1) (A1)
                 (B2) (A1) (B2) (B1) (A1) (B2) (A2) (A1) (B2) (A1)
                 (B2) (A1) (A1)
 The electronic state of the initial guess is 1-A1.
 Leave Link  401 at Thu Feb 26 00:33:17 2015, MaxMem= 1073741824 cpu:       1.4
 (Enter /apps/gaussian/g09_c01/g09/l502.exe)
 Closed shell SCF:
 Requested convergence on RMS density matrix=1.00D-08 within 128 cycles.
 Requested convergence on MAX density matrix=1.00D-06.
 Requested convergence on             energy=1.00D-06.
 No special actions if energy rises.
 Using DIIS extrapolation, IDIIS=  1040.
 Integral symmetry usage will be decided dynamically.
       179195 words used for storage of precomputed grid.
 Keep J ints in memory in canonical form, NReq=2268508.
 IEnd=      207400 IEndB=      207400 NGot=  1073741824 MDV=  1072367547
 LenX=  1072367547 LenY=  1072364081
 Symmetry not used in FoFDir.
 MinBra= 0 MaxBra= 2 Meth= 1.
 IRaf=       0 NMat=   1 IRICut=       1 DoRegI=T DoRafI=F ISym2E= 0 JSym2E=0.
 Integral accuracy reduced to 1.0D-05 until final iterations.

 Cycle   1  Pass 0  IDiag  1:
 E= -150.161607070368    
 DIIS: error= 2.68D-02 at cycle   1 NSaved=   1.
 NSaved= 1 IEnMin= 1 EnMin= -150.161607070368     IErMin= 1 ErrMin= 2.68D-02
 ErrMax= 2.68D-02 EMaxC= 1.00D-01 BMatC= 4.33D-02 BMatP= 4.33D-02
 IDIUse=3 WtCom= 7.32D-01 WtEn= 2.68D-01
 Coeff-Com:  0.100D+01
 Coeff-En:   0.100D+01
 Coeff:      0.100D+01
 Gap=     0.168 Goal=   None    Shift=    0.000
 GapD=    0.168 DampG=1.000 DampE=0.500 DampFc=0.5000 IDamp=-1.
 Damping current iteration by 5.00D-01
 RMSDP=6.04D-03 MaxDP=9.82D-02              OVMax= 1.51D-01

 Cycle   2  Pass 0  IDiag  1:
 E= -150.169592219750     Delta-E=       -0.007985149382 Rises=F Damp=T
 DIIS: error= 1.09D-02 at cycle   2 NSaved=   2.
 NSaved= 2 IEnMin= 2 EnMin= -150.169592219750     IErMin= 2 ErrMin= 1.09D-02
 ErrMax= 1.09D-02 EMaxC= 1.00D-01 BMatC= 5.52D-03 BMatP= 4.33D-02
 IDIUse=3 WtCom= 8.91D-01 WtEn= 1.09D-01
 Coeff-Com:  0.233D+00 0.767D+00
 Coeff-En:   0.388D+00 0.612D+00
 Coeff:      0.250D+00 0.750D+00
 Gap=     0.212 Goal=   None    Shift=    0.000
 RMSDP=1.35D-03 MaxDP=2.34D-02 DE=-7.99D-03 OVMax= 1.17D-01

 Cycle   3  Pass 0  IDiag  1:
 E= -150.194372288113     Delta-E=       -0.024780068363 Rises=F Damp=F
 DIIS: error= 7.40D-03 at cycle   3 NSaved=   3.
 NSaved= 3 IEnMin= 3 EnMin= -150.194372288113     IErMin= 3 ErrMin= 7.40D-03
 ErrMax= 7.40D-03 EMaxC= 1.00D-01 BMatC= 1.20D-03 BMatP= 5.52D-03
 IDIUse=3 WtCom= 9.26D-01 WtEn= 7.40D-02
 Coeff-Com:  0.867D-01 0.354D+00 0.559D+00
 Coeff-En:   0.000D+00 0.000D+00 0.100D+01
 Coeff:      0.803D-01 0.328D+00 0.592D+00
 Gap=     0.208 Goal=   None    Shift=    0.000
 RMSDP=7.57D-04 MaxDP=1.42D-02 DE=-2.48D-02 OVMax= 2.32D-02

 Cycle   4  Pass 0  IDiag  1:
 E= -150.195355951880     Delta-E=       -0.000983663767 Rises=F Damp=F
 DIIS: error= 3.41D-03 at cycle   4 NSaved=   4.
 NSaved= 4 IEnMin= 4 EnMin= -150.195355951880     IErMin= 4 ErrMin= 3.41D-03
 ErrMax= 3.41D-03 EMaxC= 1.00D-01 BMatC= 2.60D-04 BMatP= 1.20D-03
 IDIUse=3 WtCom= 9.66D-01 WtEn= 3.41D-02
 Coeff-Com:  0.842D-02 0.411D-01 0.326D+00 0.625D+00
 Coeff-En:   0.000D+00 0.000D+00 0.185D+00 0.815D+00
 Coeff:      0.813D-02 0.397D-01 0.321D+00 0.631D+00
 Gap=     0.210 Goal=   None    Shift=    0.000
 RMSDP=2.46D-04 MaxDP=4.39D-03 DE=-9.84D-04 OVMax= 6.82D-03

 Cycle   5  Pass 0  IDiag  1:
 E= -150.195609853064     Delta-E=       -0.000253901184 Rises=F Damp=F
 DIIS: error= 2.86D-04 at cycle   5 NSaved=   5.
 NSaved= 5 IEnMin= 5 EnMin= -150.195609853064     IErMin= 5 ErrMin= 2.86D-04
 ErrMax= 2.86D-04 EMaxC= 1.00D-01 BMatC= 3.35D-06 BMatP= 2.60D-04
 IDIUse=3 WtCom= 9.97D-01 WtEn= 2.86D-03
 Coeff-Com:  0.102D-02 0.445D-02 0.109D+00 0.247D+00 0.639D+00
 Coeff-En:   0.000D+00 0.000D+00 0.000D+00 0.000D+00 0.100D+01
 Coeff:      0.102D-02 0.444D-02 0.108D+00 0.246D+00 0.640D+00
 Gap=     0.210 Goal=   None    Shift=    0.000
 RMSDP=3.26D-05 MaxDP=3.80D-04 DE=-2.54D-04 OVMax= 6.51D-04

 Cycle   6  Pass 0  IDiag  1:
 E= -150.195613157638     Delta-E=       -0.000003304574 Rises=F Damp=F
 DIIS: error= 1.89D-05 at cycle   6 NSaved=   6.
 NSaved= 6 IEnMin= 6 EnMin= -150.195613157638     IErMin= 6 ErrMin= 1.89D-05
 ErrMax= 1.89D-05 EMaxC= 1.00D-01 BMatC= 1.48D-08 BMatP= 3.35D-06
 IDIUse=1 WtCom= 1.00D+00 WtEn= 0.00D+00
 Coeff-Com:  0.269D-03 0.549D-03 0.246D-01 0.562D-01 0.166D+00 0.753D+00
 Coeff:      0.269D-03 0.549D-03 0.246D-01 0.562D-01 0.166D+00 0.753D+00
 Gap=     0.210 Goal=   None    Shift=    0.000
 RMSDP=2.15D-06 MaxDP=1.70D-05 DE=-3.30D-06 OVMax= 2.95D-05

 Initial convergence to 1.0D-05 achieved.  Increase integral accuracy.
 Cycle   7  Pass 1  IDiag  1:
 E= -150.195611808592     Delta-E=        0.000001349046 Rises=F Damp=F
 DIIS: error= 2.60D-06 at cycle   1 NSaved=   1.
 NSaved= 1 IEnMin= 1 EnMin= -150.195611808592     IErMin= 1 ErrMin= 2.60D-06
 ErrMax= 2.60D-06 EMaxC= 1.00D-01 BMatC= 1.67D-10 BMatP= 1.67D-10
 IDIUse=1 WtCom= 1.00D+00 WtEn= 0.00D+00
 Coeff-Com:  0.100D+01
 Coeff:      0.100D+01
 Gap=     0.210 Goal=   None    Shift=    0.000
 RMSDP=2.15D-06 MaxDP=1.70D-05 DE= 1.35D-06 OVMax= 9.53D-06

 Cycle   8  Pass 1  IDiag  1:
 E= -150.195611808701     Delta-E=       -0.000000000109 Rises=F Damp=F
 DIIS: error= 1.58D-06 at cycle   2 NSaved=   2.
 NSaved= 2 IEnMin= 2 EnMin= -150.195611808701     IErMin= 2 ErrMin= 1.58D-06
 ErrMax= 1.58D-06 EMaxC= 1.00D-01 BMatC= 1.33D-10 BMatP= 1.67D-10
 IDIUse=1 WtCom= 1.00D+00 WtEn= 0.00D+00
 Coeff-Com:  0.464D+00 0.536D+00
 Coeff:      0.464D+00 0.536D+00
 Gap=     0.210 Goal=   None    Shift=    0.000
 RMSDP=1.93D-07 MaxDP=3.09D-06 DE=-1.09D-10 OVMax= 4.48D-06

 Cycle   9  Pass 1  IDiag  1:
 E= -150.195611808794     Delta-E=       -0.000000000093 Rises=F Damp=F
 DIIS: error= 6.87D-07 at cycle   3 NSaved=   3.
 NSaved= 3 IEnMin= 3 EnMin= -150.195611808794     IErMin= 3 ErrMin= 6.87D-07
 ErrMax= 6.87D-07 EMaxC= 1.00D-01 BMatC= 2.47D-11 BMatP= 1.33D-10
 IDIUse=1 WtCom= 1.00D+00 WtEn= 0.00D+00
 Coeff-Com:  0.856D-01 0.302D+00 0.612D+00
 Coeff:      0.856D-01 0.302D+00 0.612D+00
 Gap=     0.210 Goal=   None    Shift=    0.000
 RMSDP=7.21D-08 MaxDP=1.32D-06 DE=-9.29D-11 OVMax= 2.50D-06

 Cycle  10  Pass 1  IDiag  1:
 E= -150.195611808811     Delta-E=       -0.000000000017 Rises=F Damp=F
 DIIS: error= 3.71D-07 at cycle   4 NSaved=   4.
 NSaved= 4 IEnMin= 4 EnMin= -150.195611808811     IErMin= 4 ErrMin= 3.71D-07
 ErrMax= 3.71D-07 EMaxC= 1.00D-01 BMatC= 2.87D-12 BMatP= 2.47D-11
 IDIUse=1 WtCom= 1.00D+00 WtEn= 0.00D+00
 Coeff-Com:  0.146D-01 0.135D+00 0.359D+00 0.492D+00
 Coeff:      0.146D-01 0.135D+00 0.359D+00 0.492D+00
 Gap=     0.210 Goal=   None    Shift=    0.000
 RMSDP=2.65D-08 MaxDP=5.49D-07 DE=-1.73D-11 OVMax= 8.77D-07

 Cycle  11  Pass 1  IDiag  1:
 E= -150.195611808814     Delta-E=       -0.000000000003 Rises=F Damp=F
 DIIS: error= 5.59D-08 at cycle   5 NSaved=   5.
 NSaved= 5 IEnMin= 5 EnMin= -150.195611808814     IErMin= 5 ErrMin= 5.59D-08
 ErrMax= 5.59D-08 EMaxC= 1.00D-01 BMatC= 8.79D-14 BMatP= 2.87D-12
 IDIUse=1 WtCom= 1.00D+00 WtEn= 0.00D+00
 Coeff-Com: -0.128D-02 0.286D-01 0.913D-01 0.210D+00 0.671D+00
 Coeff:     -0.128D-02 0.286D-01 0.913D-01 0.210D+00 0.671D+00
 Gap=     0.210 Goal=   None    Shift=    0.000
 RMSDP=4.66D-09 MaxDP=5.84D-08 DE=-2.50D-12 OVMax= 1.06D-07

 SCF Done:  E(RPBE-PBE) =  -150.195611809     A.U. after   11 cycles
             Convg  =    0.4663D-08             -V/T =  2.0098
 KE= 1.487362240931D+02 PE=-5.018921776128D+02 EE= 1.235362352427D+02
 Leave Link  502 at Thu Feb 26 00:33:18 2015, MaxMem= 1073741824 cpu:       3.7
 (Enter /apps/gaussian/g09_c01/g09/l801.exe)
 Range of M.O.s used for correlation:     1    55
 NBasis=    55 NAE=    12 NBE=    12 NFC=     0 NFV=     0
 NROrb=     55 NOA=    12 NOB=    12 NVA=    43 NVB=    43
 Leave Link  801 at Thu Feb 26 00:33:18 2015, MaxMem= 1073741824 cpu:       0.2
 (Enter /apps/gaussian/g09_c01/g09/l1002.exe)
 Minotr:  Closed shell wavefunction.
          Direct CPHF calculation.
          Differentiating once with respect to electric field.
                with respect to dipole field.
          Electric field/nuclear overlap derivatives assumed to be zero.
          Using symmetry in CPHF.
          Requested convergence is 1.0D-08 RMS, and 1.0D-07 maximum.
          Secondary convergence is 1.0D-12 RMS, and 1.0D-12 maximum.
          NewPWx=F KeepS1=T KeepF1=T KeepIn=T MapXYZ=F SortEE=F KeepMc=T.
          MDV=    1073741756 using IRadAn=       1.
 Generate precomputed XC quadrature information.
          Keep J ints in memory in canonical form, NReq=2009766.
 Symmetry not used in FoFDir.
 MinBra= 0 MaxBra= 2 Meth= 1.
 IRaf=       0 NMat=   1 IRICut=       1 DoRegI=T DoRafI=F ISym2E= 0 JSym2E=0.
          Solving linear equations simultaneously, MaxMat=       0.
          There are     3 degrees of freedom in the 1st order CPHF.  IDoFFX=0.
      3 vectors produced by pass  0 Test12= 1.72D-14 3.33D-08 XBig12= 5.66D+01 6.85D+00.
 AX will form     3 AO Fock derivatives at one time.
      3 vectors produced by pass  1 Test12= 1.72D-14 3.33D-08 XBig12= 3.03D+01 2.17D+00.
      3 vectors produced by pass  2 Test12= 1.72D-14 3.33D-08 XBig12= 1.70D+00 4.97D-01.
      3 vectors produced by pass  3 Test12= 1.72D-14 3.33D-08 XBig12= 4.01D-02 7.76D-02.
      3 vectors produced by pass  4 Test12= 1.72D-14 3.33D-08 XBig12= 8.02D-03 3.53D-02.
      3 vectors produced by pass  5 Test12= 1.72D-14 3.33D-08 XBig12= 6.27D-04 6.88D-03.
      3 vectors produced by pass  6 Test12= 1.72D-14 3.33D-08 XBig12= 1.21D-05 1.42D-03.
      2 vectors produced by pass  7 Test12= 1.72D-14 3.33D-08 XBig12= 6.68D-08 1.16D-04.
      2 vectors produced by pass  8 Test12= 1.72D-14 3.33D-08 XBig12= 3.11D-10 6.37D-06.
      2 vectors produced by pass  9 Test12= 1.72D-14 3.33D-08 XBig12= 5.12D-12 5.55D-07.
      1 vectors produced by pass 10 Test12= 1.72D-14 3.33D-08 XBig12= 5.49D-14 7.38D-08.
 Inverted reduced A of dimension    28 with in-core refinement.
 End of Minotr Frequency-dependent properties file   721 does not exist.
 End of Minotr Frequency-dependent properties file   722 does not exist.
 Leave Link 1002 at Thu Feb 26 00:33:19 2015, MaxMem= 1073741824 cpu:      11.3
 (Enter /apps/gaussian/g09_c01/g09/l1101.exe)
 Using compressed storage, NAtomX=     8.
 Will process   9 centers per pass.
 Leave Link 1101 at Thu Feb 26 00:33:19 2015, MaxMem= 1073741824 cpu:       0.9
 (Enter /apps/gaussian/g09_c01/g09/l1102.exe)
 Symmetrizing basis deriv contribution to polar:
 IMax=3 JMax=2 DiffMx= 0.00D+00
 Leave Link 1102 at Thu Feb 26 00:33:19 2015, MaxMem= 1073741824 cpu:       0.1
 (Enter /apps/gaussian/g09_c01/g09/l1110.exe)
 Forming Gx(P) for the SCF density, NAtomX=     8.
 Integral derivatives from FoFDir/FoFCou, PRISM(SPDF).
 Do as many integral derivatives as possible in FoFDir.
 G2DrvN: MDV=    1073741656.
 G2DrvN: will do     9 centers at a time, making    1 passes doing MaxLOS=2.
 Calling FoFCou, ICntrl=  3507 FMM=F I1Cent=   0 AccDes= 0.00D+00.
 FoFCou: FMM=F IPFlag=           0 FMFlag=      100000 FMFlg1=           0
         NFxFlg=           0 DoJE=F BraDBF=F KetDBF=F FulRan=T
         Omega=  0.000000  0.000000  1.000000  0.000000  0.000000 ICntrl=    3507 IOpCl=  0
         NMat0=    1 NMatS0=    1 NMatT0=    0 NMatD0=    4 NMtDS0=    3 NMtDT0=    0
         I1Cent=           0 NGrid=           0.
 Petite list used in FoFCou.
 FoFDir/FoFCou used for L=0 through L=2.
 End of G2Drv Frequency-dependent properties file   721 does not exist.
 End of G2Drv Frequency-dependent properties file   722 does not exist.
 Leave Link 1110 at Thu Feb 26 00:33:21 2015, MaxMem= 1073741824 cpu:      10.9
 (Enter /apps/gaussian/g09_c01/g09/l1002.exe)
 Minotr:  Closed shell wavefunction.
          IDoAtm=11111111
          Direct CPHF calculation.
          Differentiating once with respect to electric field.
                with respect to dipole field.
          Differentiating once with respect to nuclear coordinates.
          Using symmetry in CPHF.
          Requested convergence is 1.0D-08 RMS, and 1.0D-07 maximum.
          Secondary convergence is 1.0D-12 RMS, and 1.0D-12 maximum.
          NewPWx=T KeepS1=F KeepF1=F KeepIn=T MapXYZ=F SortEE=F KeepMc=T.
          MDV=    1073741740 using IRadAn=       1.
 Generate precomputed XC quadrature information.
          Keep J ints in memory in canonical form, NReq=2009934.
 Symmetry not used in FoFDir.
 MinBra= 0 MaxBra= 2 Meth= 1.
 IRaf=       0 NMat=   1 IRICut=       1 DoRegI=T DoRafI=F ISym2E= 0 JSym2E=0.
          Solving linear equations simultaneously, MaxMat=       0.
          There are    18 degrees of freedom in the 1st order CPHF.  IDoFFX=4.
 Will reuse    3 saved solutions.
     15 vectors produced by pass  0 Test12= 2.87D-15 5.56D-09 XBig12= 1.29D-01 1.54D-01.
 AX will form    15 AO Fock derivatives at one time.
     15 vectors produced by pass  1 Test12= 2.87D-15 5.56D-09 XBig12= 5.01D-02 1.13D-01.
     15 vectors produced by pass  2 Test12= 2.87D-15 5.56D-09 XBig12= 1.94D-03 9.19D-03.
     15 vectors produced by pass  3 Test12= 2.87D-15 5.56D-09 XBig12= 2.14D-06 3.67D-04.
     15 vectors produced by pass  4 Test12= 2.87D-15 5.56D-09 XBig12= 3.21D-10 3.49D-06.
      4 vectors produced by pass  5 Test12= 2.87D-15 5.56D-09 XBig12= 3.19D-14 5.70D-08.
 Inverted reduced A of dimension    79 with in-core refinement.
 FullF1:  Do perturbations    1 to    18.
 Isotropic polarizability for W=    0.000000       21.72 Bohr**3.
 FullF1:  Do perturbations    1 to     6.
 End of Minotr Frequency-dependent properties file   721 does not exist.
 End of Minotr Frequency-dependent properties file   722 does not exist.
 Leave Link 1002 at Thu Feb 26 00:33:23 2015, MaxMem= 1073741824 cpu:      17.9
 (Enter /apps/gaussian/g09_c01/g09/l601.exe)
 Copying SCF densities to generalized density rwf, IOpCl= 0 IROHF=0.

 **********************************************************************

            Population analysis using the SCF density.

 **********************************************************************

 Orbital symmetries:
       Occupied  (A1) (B2) (A1) (A1) (B2) (A1) (A1) (B2) (B2) (A1)
                 (B1) (A2)
       Virtual   (B1) (A1) (A1) (B2) (B2) (A1) (A1) (B2) (B2) (B1)
                 (A1) (A1) (A1) (A2) (B2) (B1) (A1) (B2) (A1) (A1)
                 (B2) (B2) (A1) (B2) (A2) (B1) (A1) (A2) (B1) (A1)
                 (B2) (A1) (B2) (B1) (A1) (B2) (A2) (A1) (B2) (A1)
                 (B2) (A1) (A1)
 The electronic state is 1-A1.
 Alpha  occ. eigenvalues --  -14.27849 -14.27849 -10.23396  -1.13470  -1.05505
 Alpha  occ. eigenvalues --   -0.83410  -0.76164  -0.73852  -0.67626  -0.61654
 Alpha  occ. eigenvalues --   -0.58997  -0.47063
 Alpha virt. eigenvalues --   -0.26044  -0.16405  -0.14029  -0.13319  -0.07934
 Alpha virt. eigenvalues --   -0.05709   0.05752   0.07789   0.27992   0.28037
 Alpha virt. eigenvalues --    0.28769   0.34496   0.41302   0.44423   0.46030
 Alpha virt. eigenvalues --    0.46430   0.58490   0.59397   0.60220   0.60958
 Alpha virt. eigenvalues --    0.66105   0.88944   0.97774   1.01261   1.03178
 Alpha virt. eigenvalues --    1.10341   1.19501   1.32938   1.38854   1.54321
 Alpha virt. eigenvalues --    1.67734   1.70228   1.90075   1.90761   1.99548
 Alpha virt. eigenvalues --    2.15867   2.18081   2.28661   2.44873   2.65989
 Alpha virt. eigenvalues --    3.42987   3.46549   3.84315
          Condensed to atoms (all electrons):
              1          2          3          4          5          6
     1  C    4.463549   0.380325   0.461008  -0.020382  -0.025126   0.461008
     2  H    0.380325   0.418178  -0.038408  -0.003316   0.003219  -0.038408
     3  N    0.461008  -0.038408   6.629339   0.320184   0.313978  -0.053959
     4  H   -0.020382  -0.003316   0.320184   0.293898  -0.015884   0.002730
     5  H   -0.025126   0.003219   0.313978  -0.015884   0.316317  -0.002914
     6  N    0.461008  -0.038408  -0.053959   0.002730  -0.002914   6.629339
     7  H   -0.025126   0.003219  -0.002914  -0.000066   0.003257   0.313978
     8  H   -0.020382  -0.003316   0.002730  -0.000089  -0.000066   0.320184
              7          8
     1  C   -0.025126  -0.020382
     2  H    0.003219  -0.003316
     3  N   -0.002914   0.002730
     4  H   -0.000066  -0.000089
     5  H    0.003257  -0.000066
     6  N    0.313978   0.320184
     7  H    0.316317  -0.015884
     8  H   -0.015884   0.293898
 Mulliken atomic charges:
              1
     1  C    0.325125
     2  H    0.278506
     3  N   -0.631958
     4  H    0.422924
     5  H    0.407219
     6  N   -0.631958
     7  H    0.407219
     8  H    0.422924
 Sum of Mulliken atomic charges =   1.00000
 Mulliken charges with hydrogens summed into heavy atoms:
              1
     1  C    0.603631
     3  N    0.198184
     6  N    0.198184
 Sum of Mulliken charges with hydrogens summed into heavy atoms =   1.00000
 APT atomic charges:
              1
     1  C    0.811659
     2  H    0.124057
     3  N   -0.582098
     4  H    0.326517
     5  H    0.287723
     6  N   -0.582098
     7  H    0.287723
     8  H    0.326517
 Sum of APT charges=   1.00000
 APT Atomic charges with hydrogens summed into heavy atoms:
              1
     1  C    0.935716
     2  H    0.000000
     3  N    0.032142
     4  H    0.000000
     5  H    0.000000
     6  N    0.032142
     7  H    0.000000
     8  H    0.000000
 Sum of APT charges=   1.00000
 Electronic spatial extent (au):  <R**2>=            158.4248
 Charge=              1.0000 electrons
 Dipole moment (field-independent basis, Debye):
    X=              0.0000    Y=              0.0000    Z=             -0.2888  Tot=              0.2888
 Quadrupole moment (field-independent basis, Debye-Ang):
   XX=            -19.1189   YY=             -3.9877   ZZ=            -10.2065
   XY=              0.0000   XZ=              0.0000   YZ=              0.0000
 Traceless Quadrupole moment (field-independent basis, Debye-Ang):
   XX=             -8.0145   YY=              7.1167   ZZ=              0.8979
   XY=              0.0000   XZ=              0.0000   YZ=              0.0000
 Octapole moment (field-independent basis, Debye-Ang**2):
  XXX=              0.0000  YYY=              0.0000  ZZZ=             -3.3683  XYY=              0.0000
  XXY=              0.0000  XXZ=             -0.1189  XZZ=              0.0000  YZZ=              0.0000
  YYZ=              0.0221  XYZ=              0.0000
 Hexadecapole moment (field-independent basis, Debye-Ang**3):
 XXXX=            -16.5777 YYYY=            -68.8384 ZZZZ=            -23.3776 XXXY=              0.0000
 XXXZ=              0.0000 YYYX=              0.0000 YYYZ=              0.0000 ZZZX=              0.0000
 ZZZY=              0.0000 XXYY=            -26.7678 XXZZ=             -9.1834 YYZZ=            -17.5961
 XXYZ=              0.0000 YYXZ=              0.0000 ZZXY=              0.0000
 N-N= 7.942410646830D+01 E-N=-5.018921758670D+02  KE= 1.487362240931D+02
 Symmetry A1   KE= 8.813286754161D+01
 Symmetry A2   KE= 3.561550733865D+00
 Symmetry B1   KE= 2.731202044930D+00
 Symmetry B2   KE= 5.431060377265D+01
  Exact polarizability:   9.848   0.000  33.620   0.000   0.000  21.704
 Approx polarizability:  14.114   0.000  64.350   0.000   0.000  33.147
 No NMR shielding tensors so no spin-rotation constants.
 Leave Link  601 at Thu Feb 26 00:33:23 2015, MaxMem= 1073741824 cpu:       1.0
 (Enter /apps/gaussian/g09_c01/g09/l701.exe)
 Compute integral second derivatives.
 ... and contract with generalized density number  0.
 Leave Link  701 at Thu Feb 26 00:33:23 2015, MaxMem= 1073741824 cpu:       1.3
 (Enter /apps/gaussian/g09_c01/g09/l702.exe)
 L702 exits ... SP integral derivatives will be done elsewhere.
 Leave Link  702 at Thu Feb 26 00:33:23 2015, MaxMem= 1073741824 cpu:       0.1
 (Enter /apps/gaussian/g09_c01/g09/l703.exe)
 Compute integral second derivatives, UseDBF=F ICtDFT=           0.
 Integral derivatives from FoFDir, PRISM(SPDF).
 Calling FoFJK, ICntrl=    100527 FMM=F ISym2X=1 I1Cent= 0 IOpClX= 0 NMat=1 NMatS=1 NMatT=0.
 FoFCou: FMM=F IPFlag=           0 FMFlag=      100000 FMFlg1=         800
         NFxFlg=           0 DoJE=F BraDBF=F KetDBF=F FulRan=T
         Omega=  0.000000  0.000000  1.000000  0.000000  0.000000 ICntrl=  100527 IOpCl=  0
         NMat0=    1 NMatS0=    1 NMatT0=    0 NMatD0=    1 NMtDS0=    0 NMtDT0=    0
         I1Cent=           0 NGrid=           0.
 Petite list used in FoFCou.
 Leave Link  703 at Thu Feb 26 00:33:25 2015, MaxMem= 1073741824 cpu:       8.9
 (Enter /apps/gaussian/g09_c01/g09/l716.exe)
 Dipole        =-1.42819041D-16-2.05391260D-15-1.13606595D-01
 Polarizability= 9.84779765D+00 8.98212461D-16 3.36198440D+01
                 2.49540365D-16-8.50541859D-13 2.17044308D+01
 HyperPolar    = 6.12055774D-13-8.51613005D-12-1.38467428D-12
                -7.14351364D-12 1.39020121D+00 2.70534701D-15
                 3.88231231D+01-2.85315134D-12 3.45175933D-11
                -9.31569462D+00
 ***** Axes restored to original set *****
 -------------------------------------------------------------------
 Center     Atomic                   Forces (Hartrees/Bohr)
 Number     Number              X              Y              Z
 -------------------------------------------------------------------
      1        6           0.000000000    0.001695277    0.000000000
      2        1           0.000000000    0.005587790    0.000000000
      3        7           0.001380064   -0.000835431    0.000000000
      4        1           0.004978903    0.003147415    0.000000000
      5        1           0.000862516   -0.005953518    0.000000000
      6        7          -0.001380064   -0.000835431    0.000000000
      7        1          -0.000862516   -0.005953518    0.000000000
      8        1          -0.004978903    0.003147415    0.000000000
 -------------------------------------------------------------------
 Cartesian Forces:  Max     0.005953518 RMS     0.002746744
 Force constants in Cartesian coordinates: 
                1             2             3             4             5 
      1  0.968573D+00
      2  0.000000D+00  0.828851D+00
      3  0.000000D+00  0.000000D+00  0.144530D+00
      4 -0.575597D-01  0.000000D+00  0.000000D+00  0.660663D-01
      5  0.000000D+00 -0.354109D+00  0.000000D+00  0.000000D+00  0.369817D+00
      6  0.000000D+00  0.000000D+00 -0.464475D-01  0.000000D+00  0.000000D+00
      7 -0.431231D+00  0.163196D+00  0.000000D+00 -0.118515D-02  0.195768D-02
      8  0.157244D+00 -0.243403D+00  0.000000D+00  0.346645D-01 -0.101324D-01
      9  0.000000D+00  0.000000D+00 -0.436391D-01  0.000000D+00  0.000000D+00
     10 -0.260493D-01 -0.167216D-01  0.000000D+00  0.914527D-03  0.543514D-04
     11  0.170557D-01  0.152939D-01  0.000000D+00  0.131137D-02  0.778077D-03
     12  0.000000D+00  0.000000D+00 -0.655477D-02  0.000000D+00  0.000000D+00
     13  0.177402D-02  0.360410D-01  0.000000D+00 -0.398267D-02  0.963861D-03
     14  0.730445D-02 -0.926227D-02  0.000000D+00  0.103302D-02  0.150048D-02
     15  0.000000D+00  0.000000D+00  0.115243D-02  0.000000D+00  0.000000D+00
     16 -0.431231D+00 -0.163196D+00  0.000000D+00 -0.118515D-02 -0.195768D-02
     17 -0.157244D+00 -0.243403D+00  0.000000D+00 -0.346645D-01 -0.101324D-01
     18  0.000000D+00  0.000000D+00 -0.436391D-01  0.000000D+00  0.000000D+00
     19  0.177402D-02 -0.360410D-01  0.000000D+00 -0.398267D-02 -0.963861D-03
     20 -0.730445D-02 -0.926227D-02  0.000000D+00 -0.103302D-02  0.150048D-02
     21  0.000000D+00  0.000000D+00  0.115243D-02  0.000000D+00  0.000000D+00
     22 -0.260493D-01  0.167216D-01  0.000000D+00  0.914527D-03 -0.543513D-04
     23 -0.170557D-01  0.152939D-01  0.000000D+00 -0.131137D-02  0.778076D-03
     24  0.000000D+00  0.000000D+00 -0.655477D-02  0.000000D+00  0.000000D+00
                6             7             8             9            10 
      6  0.264785D-01
      7  0.000000D+00  0.913261D+00
      8  0.000000D+00 -0.266003D-01  0.853833D+00
      9  0.612912D-02  0.000000D+00  0.000000D+00  0.408663D-01
     10  0.000000D+00 -0.336039D+00 -0.178028D+00  0.000000D+00  0.349570D+00
     11  0.000000D+00 -0.182375D+00 -0.188692D+00  0.000000D+00  0.185292D+00
     12 -0.382671D-02  0.000000D+00  0.000000D+00 -0.560919D-02  0.000000D+00
     13  0.000000D+00 -0.746246D-01  0.317647D-01  0.000000D+00  0.105713D-01
     14  0.000000D+00  0.305517D-01 -0.441735D+00  0.000000D+00  0.469968D-02
     15  0.768212D-02  0.000000D+00  0.000000D+00 -0.124148D-01  0.000000D+00
     16  0.000000D+00 -0.746070D-01 -0.142457D-01  0.000000D+00  0.191908D-02
     17  0.000000D+00  0.142457D-01  0.311472D-01  0.000000D+00  0.539212D-02
     18  0.612912D-02  0.000000D+00  0.000000D+00  0.132211D-01  0.000000D+00
     19  0.000000D+00  0.250646D-02  0.593090D-03  0.000000D+00 -0.156293D-03
     20  0.000000D+00  0.498181D-02  0.746628D-03  0.000000D+00 -0.203610D-03
     21  0.768212D-02  0.000000D+00  0.000000D+00 -0.391830D-02  0.000000D+00
     22  0.000000D+00  0.191908D-02 -0.539212D-02  0.000000D+00 -0.730444D-03
     23  0.000000D+00 -0.595715D-02 -0.176435D-02  0.000000D+00 -0.484970D-03
     24 -0.382671D-02  0.000000D+00  0.000000D+00  0.536486D-02  0.000000D+00
               11            12            13            14            15 
     11  0.183230D+00
     12  0.000000D+00  0.904945D-02
     13 -0.279228D-01  0.000000D+00  0.657365D-01
     14 -0.917282D-02  0.000000D+00 -0.394338D-01  0.457722D+00
     15  0.000000D+00 -0.138205D-02  0.000000D+00  0.000000D+00  0.910431D-02
     16  0.595715D-02  0.000000D+00  0.250646D-02 -0.498181D-02  0.000000D+00
     17 -0.176435D-02  0.000000D+00 -0.593090D-03  0.746628D-03  0.000000D+00
     18  0.000000D+00  0.536486D-02  0.000000D+00  0.000000D+00 -0.391830D-02
     19  0.196763D-03  0.000000D+00 -0.182466D-02  0.623143D-03  0.000000D+00
     20 -0.556274D-03  0.000000D+00 -0.623143D-03  0.757129D-03  0.000000D+00
     21  0.000000D+00 -0.503347D-03  0.000000D+00  0.000000D+00  0.279595D-03
     22  0.484970D-03  0.000000D+00 -0.156293D-03  0.203610D-03  0.000000D+00
     23  0.883878D-03  0.000000D+00 -0.196763D-03 -0.556274D-03  0.000000D+00
     24  0.000000D+00  0.346176D-02  0.000000D+00  0.000000D+00 -0.503347D-03
               16            17            18            19            20 
     16  0.913261D+00
     17  0.266003D-01  0.853833D+00
     18  0.000000D+00  0.000000D+00  0.408663D-01
     19 -0.746246D-01 -0.317647D-01  0.000000D+00  0.657365D-01
     20 -0.305517D-01 -0.441735D+00  0.000000D+00  0.394338D-01  0.457722D+00
     21  0.000000D+00  0.000000D+00 -0.124148D-01  0.000000D+00  0.000000D+00
     22 -0.336039D+00  0.178028D+00  0.000000D+00  0.105713D-01 -0.469968D-02
     23  0.182375D+00 -0.188692D+00  0.000000D+00  0.279228D-01 -0.917282D-02
     24  0.000000D+00  0.000000D+00 -0.560919D-02  0.000000D+00  0.000000D+00
               21            22            23            24 
     21  0.910431D-02
     22  0.000000D+00  0.349570D+00
     23  0.000000D+00 -0.185292D+00  0.183230D+00
     24 -0.138205D-02  0.000000D+00  0.000000D+00  0.904945D-02
 Force constants in internal coordinates: 
                1             2             3             4             5 
      1  0.369817D+00
      2  0.624400D-02  0.627290D+00
      3  0.624400D-02  0.469480D-01  0.627290D+00
      4  0.465199D-03  0.506047D-02 -0.541397D-02  0.469492D+00
      5 -0.139256D-02  0.864722D-02 -0.322212D-02  0.343719D-03  0.461641D+00
      6 -0.139256D-02 -0.322212D-02  0.864722D-02  0.471700D-03  0.897552D-03
      7  0.465199D-03 -0.541397D-02  0.506047D-02  0.334084D-03  0.471700D-03
      8  0.353757D-02  0.872588D-02 -0.338595D-01 -0.257654D-02  0.369043D-02
      9  0.353757D-02 -0.338595D-01  0.872588D-02  0.454780D-03  0.733795D-03
     10 -0.707514D-02  0.251336D-01  0.251336D-01  0.212176D-02 -0.442423D-02
     11 -0.151251D-02  0.167917D-01  0.319392D-02  0.128775D-02 -0.793388D-02
     12  0.182558D-02  0.792226D-02 -0.110116D-02 -0.661037D-02  0.211655D-02
     13 -0.313071D-03 -0.247140D-01 -0.209276D-02  0.532262D-02  0.581733D-02
     14  0.182558D-02 -0.110116D-02  0.792226D-02 -0.116246D-03  0.113179D-02
     15 -0.151251D-02  0.319392D-02  0.167917D-01  0.186815D-03 -0.882739D-03
     16 -0.313071D-03 -0.209276D-02 -0.247140D-01 -0.705695D-04 -0.249051D-03
     17  0.000000D+00  0.000000D+00  0.000000D+00  0.000000D+00  0.000000D+00
     18  0.000000D+00  0.000000D+00  0.000000D+00  0.000000D+00  0.000000D+00
     19  0.000000D+00  0.000000D+00  0.000000D+00  0.000000D+00  0.000000D+00
     20  0.000000D+00  0.000000D+00  0.000000D+00  0.000000D+00  0.000000D+00
     21  0.000000D+00  0.000000D+00  0.000000D+00  0.000000D+00  0.000000D+00
     22  0.000000D+00  0.000000D+00  0.000000D+00  0.000000D+00  0.000000D+00
     23  0.000000D+00  0.000000D+00  0.000000D+00  0.000000D+00  0.000000D+00
     24  0.000000D+00  0.000000D+00  0.000000D+00  0.000000D+00  0.000000D+00
                6             7             8             9            10 
      6  0.461641D+00
      7  0.343719D-03  0.469492D+00
      8  0.733795D-03  0.454780D-03  0.109482D+00
      9  0.369043D-02 -0.257654D-02 -0.355358D-01  0.109482D+00
     10 -0.442423D-02  0.212176D-02 -0.739460D-01 -0.739460D-01  0.147892D+00
     11 -0.882739D-03  0.186815D-03 -0.752461D-02 -0.406082D-02  0.115854D-01
     12  0.113179D-02 -0.116246D-03  0.892337D-02 -0.405319D-03 -0.851805D-02
     13 -0.249051D-03 -0.705695D-04 -0.139876D-02  0.446614D-02 -0.306737D-02
     14  0.211655D-02 -0.661037D-02 -0.405319D-03  0.892337D-02 -0.851805D-02
     15 -0.793388D-02  0.128775D-02 -0.406082D-02 -0.752461D-02  0.115854D-01
     16  0.581733D-02  0.532262D-02  0.446614D-02 -0.139876D-02 -0.306737D-02
     17  0.000000D+00  0.000000D+00  0.000000D+00  0.000000D+00  0.000000D+00
     18  0.000000D+00  0.000000D+00  0.000000D+00  0.000000D+00  0.000000D+00
     19  0.000000D+00  0.000000D+00  0.000000D+00  0.000000D+00  0.000000D+00
     20  0.000000D+00  0.000000D+00  0.000000D+00  0.000000D+00  0.000000D+00
     21  0.000000D+00  0.000000D+00  0.000000D+00  0.000000D+00  0.000000D+00
     22  0.000000D+00  0.000000D+00  0.000000D+00  0.000000D+00  0.000000D+00
     23  0.000000D+00  0.000000D+00  0.000000D+00  0.000000D+00  0.000000D+00
     24  0.000000D+00  0.000000D+00  0.000000D+00  0.000000D+00  0.000000D+00
               11            12            13            14            15 
     11  0.856503D-01
     12 -0.457851D-01  0.842027D-01
     13 -0.398652D-01 -0.384176D-01  0.782828D-01
     14 -0.183868D-02  0.281377D-02 -0.975086D-03  0.842027D-01
     15  0.230870D-02 -0.183868D-02 -0.470015D-03 -0.457851D-01  0.856503D-01
     16 -0.470015D-03 -0.975086D-03  0.144510D-02 -0.384176D-01 -0.398652D-01
     17  0.000000D+00  0.000000D+00  0.000000D+00  0.000000D+00  0.000000D+00
     18  0.000000D+00  0.000000D+00  0.000000D+00  0.000000D+00  0.000000D+00
     19  0.000000D+00  0.000000D+00  0.000000D+00  0.000000D+00  0.000000D+00
     20  0.000000D+00  0.000000D+00  0.000000D+00  0.000000D+00  0.000000D+00
     21  0.000000D+00  0.000000D+00  0.000000D+00  0.000000D+00  0.000000D+00
     22  0.000000D+00  0.000000D+00  0.000000D+00  0.000000D+00  0.000000D+00
     23  0.000000D+00  0.000000D+00  0.000000D+00  0.000000D+00  0.000000D+00
     24  0.000000D+00  0.000000D+00  0.000000D+00  0.000000D+00  0.000000D+00
               16            17            18            19            20 
     16  0.782828D-01
     17  0.000000D+00  0.975441D-02
     18  0.000000D+00  0.431930D-02  0.133456D-01
     19  0.000000D+00  0.387393D-02 -0.563488D-02  0.159198D-01
     20  0.000000D+00 -0.156118D-02  0.339139D-02  0.641098D-02  0.113636D-01
     21  0.000000D+00 -0.377216D-02 -0.565311D-02  0.618202D-02  0.430107D-02
     22  0.000000D+00 -0.377547D-02 -0.377216D-02  0.210501D-02  0.210832D-02
     23  0.000000D+00  0.210832D-02  0.430107D-02 -0.586385D-02 -0.367109D-02
     24  0.000000D+00  0.210501D-02  0.618202D-02 -0.994086D-02 -0.586385D-02
               21            22            23            24 
     21  0.133456D-01
     22  0.431930D-02  0.975441D-02
     23  0.339139D-02 -0.156118D-02  0.113636D-01
     24 -0.563488D-02  0.387393D-02  0.641098D-02  0.159198D-01
 Leave Link  716 at Thu Feb 26 00:33:25 2015, MaxMem= 1073741824 cpu:       0.2
 (Enter /apps/gaussian/g09_c01/g09/l103.exe)

 GradGradGradGradGradGradGradGradGradGradGradGradGradGradGradGradGradGrad
 Berny optimization.
 Red2BG is reusing G-inverse.
 Internal  Forces:  Max     0.008087356 RMS     0.003559962
 Search for a local minimum.
 Step number   1 out of a maximum of   34
 All quantities printed in internal units (Hartrees-Bohrs-Radians)
 RMS Force = .35600D-02 SwitMx=.10000D-02 MixMth= 1
 Mixed Optimization -- RFO/linear search
 Second derivative matrix not updated -- analytic derivatives used.
 ITU=  0
     Eigenvalues ---    0.01164   0.01322   0.01570   0.02014   0.04006
     Eigenvalues ---    0.11180   0.11721   0.12276   0.12847   0.14561
     Eigenvalues ---    0.22281   0.37029   0.45987   0.46313   0.46875
     Eigenvalues ---    0.47017   0.58804   0.68089
 RFO step:  Lambda=-5.75865373D-04 EMin= 1.16382821D-02
 Linear search not attempted -- first point.
 Iteration  1 RMS(Cart)=  0.00977707 RMS(Int)=  0.00000470
 Iteration  2 RMS(Cart)=  0.00000867 RMS(Int)=  0.00000000
 Iteration  3 RMS(Cart)=  0.00000000 RMS(Int)=  0.00000000
 ClnCor:  largest displacement from symmetrization is 2.59D-11 for atom     8.
 Variable       Old X    -DE/DX   Delta X   Delta X   Delta X     New X
                                 (Linear)    (Quad)   (Total)
    R1        2.05337   0.00559   0.00000   0.01473   0.01473   2.06809
    R2        2.48365   0.00809   0.00000   0.01178   0.01178   2.49543
    R3        2.48365   0.00809   0.00000   0.01178   0.01178   2.49543
    R4        1.91586   0.00589   0.00000   0.01252   0.01252   1.92838
    R5        1.91959   0.00601   0.00000   0.01282   0.01282   1.93241
    R6        1.91959   0.00601   0.00000   0.01282   0.01282   1.93241
    R7        1.91586   0.00589   0.00000   0.01252   0.01252   1.92838
    A1        2.04681  -0.00019   0.00000  -0.00006  -0.00006   2.04675
    A2        2.04681  -0.00019   0.00000  -0.00006  -0.00006   2.04675
    A3        2.18957   0.00039   0.00000   0.00012   0.00012   2.18969
    A4        2.09627  -0.00011   0.00000  -0.00171  -0.00171   2.09456
    A5        2.15059   0.00029   0.00000   0.00166   0.00166   2.15225
    A6        2.03632  -0.00018   0.00000   0.00006   0.00006   2.03638
    A7        2.15059   0.00029   0.00000   0.00166   0.00166   2.15225
    A8        2.09627  -0.00011   0.00000  -0.00171  -0.00171   2.09456
    A9        2.03632  -0.00018   0.00000   0.00006   0.00006   2.03638
    D1        0.00000   0.00000   0.00000   0.00000   0.00000   0.00000
    D2        3.14159   0.00000   0.00000   0.00000   0.00000   3.14159
    D3        3.14159   0.00000   0.00000   0.00000   0.00000   3.14159
    D4        0.00000   0.00000   0.00000   0.00000   0.00000   0.00000
    D5        3.14159   0.00000   0.00000   0.00000   0.00000   3.14159
    D6        0.00000   0.00000   0.00000   0.00000   0.00000   0.00000
    D7        0.00000   0.00000   0.00000   0.00000   0.00000   0.00000
    D8        3.14159   0.00000   0.00000   0.00000   0.00000   3.14159
         Item               Value     Threshold  Converged?
 Maximum Force            0.008087     0.000002     NO 
 RMS     Force            0.003560     0.000001     NO 
 Maximum Displacement     0.019240     0.000006     NO 
 RMS     Displacement     0.009779     0.000004     NO 
 Predicted change in Energy=-2.882637D-04
 GradGradGradGradGradGradGradGradGradGradGradGradGradGradGradGradGradGrad

 Leave Link  103 at Thu Feb 26 00:33:25 2015, MaxMem= 1073741824 cpu:       0.0
 (Enter /apps/gaussian/g09_c01/g09/l202.exe)
                          Input orientation:                          
 ---------------------------------------------------------------------
 Center     Atomic      Atomic             Coordinates (Angstroms)
 Number     Number       Type             X           Y           Z
 ---------------------------------------------------------------------
      1          6           0        0.000000    0.428752    0.000000
      2          1           0        0.000000    1.523139    0.000000
      3          7           0        1.173758   -0.176294    0.000000
      4          1           0        2.032284    0.375304    0.000000
      5          1           0        1.281442   -1.193193    0.000000
      6          7           0       -1.173758   -0.176294    0.000000
      7          1           0       -1.281442   -1.193193    0.000000
      8          1           0       -2.032284    0.375304    0.000000
 ---------------------------------------------------------------------
                    Distance matrix (angstroms):
                    1          2          3          4          5
     1  C    0.000000
     2  H    1.094387   0.000000
     3  N    1.320526   2.065376   0.000000
     4  H    2.032987   2.334031   1.020454   0.000000
     5  H    2.067074   3.003423   1.022585   1.738950   0.000000
     6  N    1.320526   2.065376   2.347516   3.253147   2.657459
     7  H    2.067074   3.003423   2.657459   3.666192   2.562883
     8  H    2.032987   2.334031   3.253147   4.064568   3.666192
                    6          7          8
     6  N    0.000000
     7  H    1.022585   0.000000
     8  H    1.020454   1.738950   0.000000
 Stoichiometry    CH5N2(1+)
 Framework group  C2V[C2(CH),SGV(H4N2)]
 Deg. of freedom     7
 Full point group                 C2V     NOp   4
 RotChk:  IX=0 Diff= 3.73D-16
 Largest Abelian subgroup         C2V     NOp   4
 Largest concise Abelian subgroup C2      NOp   2
                         Standard orientation:                         
 ---------------------------------------------------------------------
 Center     Atomic      Atomic             Coordinates (Angstroms)
 Number     Number       Type             X           Y           Z
 ---------------------------------------------------------------------
      1          6           0        0.000000    0.000000    0.429081
      2          1           0        0.000000    0.000000    1.523468
      3          7           0        0.000000    1.173758   -0.175964
      4          1           0        0.000000    2.032284    0.375634
      5          1           0        0.000000    1.281442   -1.192863
      6          7           0        0.000000   -1.173758   -0.175964
      7          1           0        0.000000   -1.281442   -1.192863
      8          1           0        0.000000   -2.032284    0.375634
 ---------------------------------------------------------------------
 Rotational constants (GHZ):     58.9853745     10.0634648      8.5967736
 Leave Link  202 at Thu Feb 26 00:33:25 2015, MaxMem= 1073741824 cpu:       0.0
 (Enter /apps/gaussian/g09_c01/g09/l301.exe)
 Standard basis: 6-31G(d) (6D, 7F)
 Ernie: Thresh=  0.10000D-02 Tol=  0.10000D-05 Strict=F.
 There are    25 symmetry adapted basis functions of A1  symmetry.
 There are     5 symmetry adapted basis functions of A2  symmetry.
 There are     7 symmetry adapted basis functions of B1  symmetry.
 There are    18 symmetry adapted basis functions of B2  symmetry.
 Integral buffers will be    131072 words long.
 Raffenetti 2 integral format.
 Two-electron integral symmetry is turned on.
    55 basis functions,   104 primitive gaussians,    55 cartesian basis functions
    12 alpha electrons       12 beta electrons
       nuclear repulsion energy        79.0006493816 Hartrees.
 IExCor= 1009 DFT=T Ex=PBE Corr=PBE ExCW=0 ScaHFX=  0.000000
 ScaDFX=  1.000000  1.000000  1.000000  1.000000 ScalE2=  1.000000  1.000000
 IRadAn=      5 IRanWt=     -1 IRanGd=            0 ICorTp=0
 NAtoms=    8 NActive=    8 NUniq=    5 SFac= 2.56D+00 NAtFMM=   60 NAOKFM=F Big=F
 Leave Link  301 at Thu Feb 26 00:33:25 2015, MaxMem= 1073741824 cpu:       0.3
 (Enter /apps/gaussian/g09_c01/g09/l302.exe)
 NPDir=0 NMtPBC=     1 NCelOv=     1 NCel=       1 NClECP=     1 NCelD=      1
         NCelK=      1 NCelE2=     1 NClLst=     1 CellRange=     0.0.
 One-electron integrals computed using PRISM.
 One-electron integral symmetry used in STVInt
 NBasis=    55 RedAO= T  NBF=    25     5     7    18
 NBsUse=    55 1.00D-06 NBFU=    25     5     7    18
 Precomputing XC quadrature grid using
 IXCGrd= 2 IRadAn=           5 IRanWt=          -1 IRanGd=           0 AccXCQ= 0.00D+00.
 NRdTot=     653 NPtTot=      174592 NUsed=      179280 NTot=      179312
 NSgBfM=    55    55    55    55    55 NAtAll=     8     8.
 Leave Link  302 at Thu Feb 26 00:33:25 2015, MaxMem= 1073741824 cpu:       1.0
 (Enter /apps/gaussian/g09_c01/g09/l303.exe)
 DipDrv:  MaxL=1.
 Leave Link  303 at Thu Feb 26 00:33:25 2015, MaxMem= 1073741824 cpu:       0.2
 (Enter /apps/gaussian/g09_c01/g09/l401.exe)
 Initial guess read from the read-write file.
 B after Tr=     0.000000    0.000000    0.000000
         Rot=    1.000000    0.000000    0.000000    0.000000 Ang=   0.00 deg.
 Guess basis will be translated and rotated to current coordinates.
 Initial guess orbital symmetries:
       Occupied  (A1) (B2) (A1) (A1) (B2) (A1) (A1) (B2) (B2) (A1)
                 (B1) (A2)
       Virtual   (B1) (A1) (A1) (B2) (B2) (A1) (A1) (B2) (B2) (B1)
                 (A1) (A1) (A1) (A2) (B2) (B1) (A1) (B2) (A1) (A1)
                 (B2) (B2) (A1) (B2) (A2) (B1) (A1) (A2) (B1) (A1)
                 (B2) (A1) (B2) (B1) (A1) (B2) (A2) (A1) (B2) (A1)
                 (B2) (A1) (A1)
 The electronic state of the initial guess is 1-A1.
 Leave Link  401 at Thu Feb 26 00:33:25 2015, MaxMem= 1073741824 cpu:       0.5
 (Enter /apps/gaussian/g09_c01/g09/l502.exe)
 Closed shell SCF:
 Requested convergence on RMS density matrix=1.00D-08 within 128 cycles.
 Requested convergence on MAX density matrix=1.00D-06.
 Requested convergence on             energy=1.00D-06.
 No special actions if energy rises.
 Using DIIS extrapolation, IDIIS=  1040.
 Integral symmetry usage will be decided dynamically.
       179195 words used for storage of precomputed grid.
 Keep J ints in memory in canonical form, NReq=2268508.
 IEnd=      207400 IEndB=      207400 NGot=  1073741824 MDV=  1072367547
 LenX=  1072367547 LenY=  1072364081
 Symmetry not used in FoFDir.
 MinBra= 0 MaxBra= 2 Meth= 1.
 IRaf=       0 NMat=   1 IRICut=       1 DoRegI=T DoRafI=F ISym2E= 0 JSym2E=0.

 Cycle   1  Pass 1  IDiag  1:
 E= -150.195835243166    
 DIIS: error= 8.86D-04 at cycle   1 NSaved=   1.
 NSaved= 1 IEnMin= 1 EnMin= -150.195835243166     IErMin= 1 ErrMin= 8.86D-04
 ErrMax= 8.86D-04 EMaxC= 1.00D-01 BMatC= 6.00D-05 BMatP= 6.00D-05
 IDIUse=3 WtCom= 9.91D-01 WtEn= 8.86D-03
 Coeff-Com:  0.100D+01
 Coeff-En:   0.100D+01
 Coeff:      0.100D+01
 Gap=     0.208 Goal=   None    Shift=    0.000
 RMSDP=2.16D-04 MaxDP=2.55D-03              OVMax= 3.51D-03

 Cycle   2  Pass 1  IDiag  1:
 E= -150.195857224185     Delta-E=       -0.000021981018 Rises=F Damp=F
 DIIS: error= 1.01D-03 at cycle   2 NSaved=   2.
 NSaved= 2 IEnMin= 2 EnMin= -150.195857224185     IErMin= 1 ErrMin= 8.86D-04
 ErrMax= 1.01D-03 EMaxC= 1.00D-01 BMatC= 5.26D-05 BMatP= 6.00D-05
 IDIUse=3 WtCom= 9.90D-01 WtEn= 1.01D-02
 Coeff-Com:  0.481D+00 0.519D+00
 Coeff-En:   0.370D+00 0.630D+00
 Coeff:      0.480D+00 0.520D+00
 Gap=     0.208 Goal=   None    Shift=    0.000
 RMSDP=1.20D-04 MaxDP=1.60D-03 DE=-2.20D-05 OVMax= 1.92D-03

 Cycle   3  Pass 1  IDiag  1:
 E= -150.195900222544     Delta-E=       -0.000042998359 Rises=F Damp=F
 DIIS: error= 2.70D-04 at cycle   3 NSaved=   3.
 NSaved= 3 IEnMin= 3 EnMin= -150.195900222544     IErMin= 3 ErrMin= 2.70D-04
 ErrMax= 2.70D-04 EMaxC= 1.00D-01 BMatC= 4.51D-06 BMatP= 5.26D-05
 IDIUse=3 WtCom= 9.97D-01 WtEn= 2.70D-03
 Coeff-Com:  0.834D-01 0.242D+00 0.675D+00
 Coeff-En:   0.000D+00 0.000D+00 0.100D+01
 Coeff:      0.832D-01 0.241D+00 0.675D+00
 Gap=     0.208 Goal=   None    Shift=    0.000
 RMSDP=3.23D-05 MaxDP=5.26D-04 DE=-4.30D-05 OVMax= 1.01D-03

 Cycle   4  Pass 1  IDiag  1:
 E= -150.195903050088     Delta-E=       -0.000002827544 Rises=F Damp=F
 DIIS: error= 2.16D-04 at cycle   4 NSaved=   4.
 NSaved= 4 IEnMin= 4 EnMin= -150.195903050088     IErMin= 4 ErrMin= 2.16D-04
 ErrMax= 2.16D-04 EMaxC= 1.00D-01 BMatC= 9.73D-07 BMatP= 4.51D-06
 IDIUse=3 WtCom= 9.98D-01 WtEn= 2.16D-03
 Coeff-Com:  0.283D-01 0.125D+00 0.432D+00 0.415D+00
 Coeff-En:   0.000D+00 0.000D+00 0.153D+00 0.847D+00
 Coeff:      0.282D-01 0.125D+00 0.431D+00 0.416D+00
 Gap=     0.208 Goal=   None    Shift=    0.000
 RMSDP=1.40D-05 MaxDP=3.00D-04 DE=-2.83D-06 OVMax= 5.13D-04

 Cycle   5  Pass 1  IDiag  1:
 E= -150.195903949147     Delta-E=       -0.000000899059 Rises=F Damp=F
 DIIS: error= 2.27D-05 at cycle   5 NSaved=   5.
 NSaved= 5 IEnMin= 5 EnMin= -150.195903949147     IErMin= 5 ErrMin= 2.27D-05
 ErrMax= 2.27D-05 EMaxC= 1.00D-01 BMatC= 1.25D-08 BMatP= 9.73D-07
 IDIUse=1 WtCom= 1.00D+00 WtEn= 0.00D+00
 Coeff-Com:  0.273D-02 0.234D-01 0.942D-01 0.151D+00 0.729D+00
 Coeff:      0.273D-02 0.234D-01 0.942D-01 0.151D+00 0.729D+00
 Gap=     0.208 Goal=   None    Shift=    0.000
 RMSDP=1.61D-06 MaxDP=2.16D-05 DE=-8.99D-07 OVMax= 4.47D-05

 Cycle   6  Pass 1  IDiag  1:
 E= -150.195903960663     Delta-E=       -0.000000011516 Rises=F Damp=F
 DIIS: error= 8.85D-07 at cycle   6 NSaved=   6.
 NSaved= 6 IEnMin= 6 EnMin= -150.195903960663     IErMin= 6 ErrMin= 8.85D-07
 ErrMax= 8.85D-07 EMaxC= 1.00D-01 BMatC= 7.85D-11 BMatP= 1.25D-08
 IDIUse=1 WtCom= 1.00D+00 WtEn= 0.00D+00
 Coeff-Com:  0.245D-05 0.263D-02 0.123D-01 0.248D-01 0.158D+00 0.802D+00
 Coeff:      0.245D-05 0.263D-02 0.123D-01 0.248D-01 0.158D+00 0.802D+00
 Gap=     0.208 Goal=   None    Shift=    0.000
 RMSDP=1.53D-07 MaxDP=1.14D-06 DE=-1.15D-08 OVMax= 2.26D-06

 Cycle   7  Pass 1  IDiag  1:
 E= -150.195903960730     Delta-E=       -0.000000000067 Rises=F Damp=F
 DIIS: error= 2.27D-07 at cycle   7 NSaved=   7.
 NSaved= 7 IEnMin= 7 EnMin= -150.195903960730     IErMin= 7 ErrMin= 2.27D-07
 ErrMax= 2.27D-07 EMaxC= 1.00D-01 BMatC= 2.55D-12 BMatP= 7.85D-11
 IDIUse=1 WtCom= 1.00D+00 WtEn= 0.00D+00
 Coeff-Com: -0.281D-04 0.627D-03 0.305D-02 0.643D-02 0.445D-01 0.268D+00
 Coeff-Com:  0.678D+00
 Coeff:     -0.281D-04 0.627D-03 0.305D-02 0.643D-02 0.445D-01 0.268D+00
 Coeff:      0.678D+00
 Gap=     0.208 Goal=   None    Shift=    0.000
 RMSDP=3.09D-08 MaxDP=2.46D-07 DE=-6.70D-11 OVMax= 4.67D-07

 Cycle   8  Pass 1  IDiag  1:
 E= -150.195903960732     Delta-E=       -0.000000000002 Rises=F Damp=F
 DIIS: error= 2.43D-08 at cycle   8 NSaved=   8.
 NSaved= 8 IEnMin= 8 EnMin= -150.195903960732     IErMin= 8 ErrMin= 2.43D-08
 ErrMax= 2.43D-08 EMaxC= 1.00D-01 BMatC= 2.26D-14 BMatP= 2.55D-12
 IDIUse=1 WtCom= 1.00D+00 WtEn= 0.00D+00
 Coeff-Com: -0.450D-05 0.770D-04 0.343D-03 0.728D-03 0.549D-02 0.343D-01
 Coeff-Com:  0.131D+00 0.828D+00
 Coeff:     -0.450D-05 0.770D-04 0.343D-03 0.728D-03 0.549D-02 0.343D-01
 Coeff:      0.131D+00 0.828D+00
 Gap=     0.208 Goal=   None    Shift=    0.000
 RMSDP=3.62D-09 MaxDP=4.45D-08 DE=-2.27D-12 OVMax= 8.73D-08

 SCF Done:  E(RPBE-PBE) =  -150.195903961     A.U. after    8 cycles
             Convg  =    0.3619D-08             -V/T =  2.0104
 KE= 1.486458304181D+02 PE=-5.010122388879D+02 EE= 1.231698551274D+02
 Leave Link  502 at Thu Feb 26 00:33:25 2015, MaxMem= 1073741824 cpu:       3.8
 (Enter /apps/gaussian/g09_c01/g09/l801.exe)
 Range of M.O.s used for correlation:     1    55
 NBasis=    55 NAE=    12 NBE=    12 NFC=     0 NFV=     0
 NROrb=     55 NOA=    12 NOB=    12 NVA=    43 NVB=    43
 Leave Link  801 at Thu Feb 26 00:33:25 2015, MaxMem= 1073741824 cpu:       0.1
 (Enter /apps/gaussian/g09_c01/g09/l1002.exe)
 Minotr:  Closed shell wavefunction.
          Direct CPHF calculation.
          Differentiating once with respect to electric field.
                with respect to dipole field.
          Electric field/nuclear overlap derivatives assumed to be zero.
          Using symmetry in CPHF.
          Requested convergence is 1.0D-08 RMS, and 1.0D-07 maximum.
          Secondary convergence is 1.0D-12 RMS, and 1.0D-12 maximum.
          NewPWx=F KeepS1=T KeepF1=T KeepIn=T MapXYZ=F SortEE=F KeepMc=T.
          MDV=    1073741756 using IRadAn=       1.
 Generate precomputed XC quadrature information.
          Keep J ints in memory in canonical form, NReq=2009766.
 Symmetry not used in FoFDir.
 MinBra= 0 MaxBra= 2 Meth= 1.
 IRaf=       0 NMat=   1 IRICut=       1 DoRegI=T DoRafI=F ISym2E= 0 JSym2E=0.
          Solving linear equations simultaneously, MaxMat=       0.
          There are     3 degrees of freedom in the 1st order CPHF.  IDoFFX=0.
      3 vectors produced by pass  0 Test12= 1.72D-14 3.33D-08 XBig12= 5.84D+01 6.97D+00.
 AX will form     3 AO Fock derivatives at one time.
      3 vectors produced by pass  1 Test12= 1.72D-14 3.33D-08 XBig12= 3.20D+01 2.25D+00.
      3 vectors produced by pass  2 Test12= 1.72D-14 3.33D-08 XBig12= 1.80D+00 5.11D-01.
      3 vectors produced by pass  3 Test12= 1.72D-14 3.33D-08 XBig12= 4.25D-02 8.13D-02.
      3 vectors produced by pass  4 Test12= 1.72D-14 3.33D-08 XBig12= 8.67D-03 3.68D-02.
      3 vectors produced by pass  5 Test12= 1.72D-14 3.33D-08 XBig12= 6.80D-04 7.15D-03.
      3 vectors produced by pass  6 Test12= 1.72D-14 3.33D-08 XBig12= 1.33D-05 1.50D-03.
      2 vectors produced by pass  7 Test12= 1.72D-14 3.33D-08 XBig12= 7.44D-08 1.23D-04.
      2 vectors produced by pass  8 Test12= 1.72D-14 3.33D-08 XBig12= 3.40D-10 6.60D-06.
      2 vectors produced by pass  9 Test12= 1.72D-14 3.33D-08 XBig12= 5.46D-12 5.81D-07.
      1 vectors produced by pass 10 Test12= 1.72D-14 3.33D-08 XBig12= 6.34D-14 7.91D-08.
 Inverted reduced A of dimension    28 with in-core refinement.
 End of Minotr Frequency-dependent properties file   721 does not exist.
 End of Minotr Frequency-dependent properties file   722 does not exist.
 Leave Link 1002 at Thu Feb 26 00:33:27 2015, MaxMem= 1073741824 cpu:      11.4
 (Enter /apps/gaussian/g09_c01/g09/l1101.exe)
 Using compressed storage, NAtomX=     8.
 Will process   9 centers per pass.
 Leave Link 1101 at Thu Feb 26 00:33:27 2015, MaxMem= 1073741824 cpu:       0.9
 (Enter /apps/gaussian/g09_c01/g09/l1102.exe)
 Symmetrizing basis deriv contribution to polar:
 IMax=3 JMax=2 DiffMx= 0.00D+00
 Leave Link 1102 at Thu Feb 26 00:33:27 2015, MaxMem= 1073741824 cpu:       0.2
 (Enter /apps/gaussian/g09_c01/g09/l1110.exe)
 Forming Gx(P) for the SCF density, NAtomX=     8.
 Integral derivatives from FoFDir/FoFCou, PRISM(SPDF).
 Do as many integral derivatives as possible in FoFDir.
 G2DrvN: MDV=    1073741656.
 G2DrvN: will do     9 centers at a time, making    1 passes doing MaxLOS=2.
 Calling FoFCou, ICntrl=  3507 FMM=F I1Cent=   0 AccDes= 0.00D+00.
 FoFCou: FMM=F IPFlag=           0 FMFlag=      100000 FMFlg1=           0
         NFxFlg=           0 DoJE=F BraDBF=F KetDBF=F FulRan=T
         Omega=  0.000000  0.000000  1.000000  0.000000  0.000000 ICntrl=    3507 IOpCl=  0
         NMat0=    1 NMatS0=    1 NMatT0=    0 NMatD0=    4 NMtDS0=    3 NMtDT0=    0
         I1Cent=           0 NGrid=           0.
 Petite list used in FoFCou.
 FoFDir/FoFCou used for L=0 through L=2.
 End of G2Drv Frequency-dependent properties file   721 does not exist.
 End of G2Drv Frequency-dependent properties file   722 does not exist.
 Leave Link 1110 at Thu Feb 26 00:33:28 2015, MaxMem= 1073741824 cpu:      10.9
 (Enter /apps/gaussian/g09_c01/g09/l1002.exe)
 Minotr:  Closed shell wavefunction.
          IDoAtm=11111111
          Direct CPHF calculation.
          Differentiating once with respect to electric field.
                with respect to dipole field.
          Differentiating once with respect to nuclear coordinates.
          Using symmetry in CPHF.
          Requested convergence is 1.0D-08 RMS, and 1.0D-07 maximum.
          Secondary convergence is 1.0D-12 RMS, and 1.0D-12 maximum.
          NewPWx=T KeepS1=F KeepF1=F KeepIn=T MapXYZ=F SortEE=F KeepMc=T.
          MDV=    1073741740 using IRadAn=       1.
 Generate precomputed XC quadrature information.
          Keep J ints in memory in canonical form, NReq=2009934.
 Symmetry not used in FoFDir.
 MinBra= 0 MaxBra= 2 Meth= 1.
 IRaf=       0 NMat=   1 IRICut=       1 DoRegI=T DoRafI=F ISym2E= 0 JSym2E=0.
          Solving linear equations simultaneously, MaxMat=       0.
          There are    18 degrees of freedom in the 1st order CPHF.  IDoFFX=4.
 Will reuse    3 saved solutions.
     15 vectors produced by pass  0 Test12= 2.87D-15 5.56D-09 XBig12= 1.28D-01 1.53D-01.
 AX will form    15 AO Fock derivatives at one time.
     15 vectors produced by pass  1 Test12= 2.87D-15 5.56D-09 XBig12= 5.19D-02 1.15D-01.
     15 vectors produced by pass  2 Test12= 2.87D-15 5.56D-09 XBig12= 2.07D-03 9.42D-03.
     15 vectors produced by pass  3 Test12= 2.87D-15 5.56D-09 XBig12= 2.27D-06 3.73D-04.
     15 vectors produced by pass  4 Test12= 2.87D-15 5.56D-09 XBig12= 3.56D-10 3.72D-06.
      4 vectors produced by pass  5 Test12= 2.87D-15 5.56D-09 XBig12= 3.55D-14 6.62D-08.
 Inverted reduced A of dimension    79 with in-core refinement.
 FullF1:  Do perturbations    1 to    18.
 Isotropic polarizability for W=    0.000000       22.01 Bohr**3.
 FullF1:  Do perturbations    1 to     6.
 End of Minotr Frequency-dependent properties file   721 does not exist.
 End of Minotr Frequency-dependent properties file   722 does not exist.
 Leave Link 1002 at Thu Feb 26 00:33:31 2015, MaxMem= 1073741824 cpu:      17.8
 (Enter /apps/gaussian/g09_c01/g09/l701.exe)
 Compute integral second derivatives.
 ... and contract with generalized density number  0.
 Leave Link  701 at Thu Feb 26 00:33:31 2015, MaxMem= 1073741824 cpu:       1.3
 (Enter /apps/gaussian/g09_c01/g09/l702.exe)
 L702 exits ... SP integral derivatives will be done elsewhere.
 Leave Link  702 at Thu Feb 26 00:33:31 2015, MaxMem= 1073741824 cpu:       0.1
 (Enter /apps/gaussian/g09_c01/g09/l703.exe)
 Compute integral second derivatives, UseDBF=F ICtDFT=           0.
 Integral derivatives from FoFDir, PRISM(SPDF).
 Calling FoFJK, ICntrl=    100527 FMM=F ISym2X=1 I1Cent= 0 IOpClX= 0 NMat=1 NMatS=1 NMatT=0.
 FoFCou: FMM=F IPFlag=           0 FMFlag=      100000 FMFlg1=         800
         NFxFlg=           0 DoJE=F BraDBF=F KetDBF=F FulRan=T
         Omega=  0.000000  0.000000  1.000000  0.000000  0.000000 ICntrl=  100527 IOpCl=  0
         NMat0=    1 NMatS0=    1 NMatT0=    0 NMatD0=    1 NMtDS0=    0 NMtDT0=    0
         I1Cent=           0 NGrid=           0.
 Petite list used in FoFCou.
 Leave Link  703 at Thu Feb 26 00:33:32 2015, MaxMem= 1073741824 cpu:       8.9
 (Enter /apps/gaussian/g09_c01/g09/l716.exe)
 Dipole        =-1.43768117D-16 1.02001740D-14-1.12528793D-01
 Polarizability= 9.86681872D+00 9.33920779D-16 3.41206510D+01
                 2.53723321D-16-9.07718345D-13 2.20568325D+01
 HyperPolar    =-1.42051045D-12-1.21639225D-11 4.61409775D-12
                -2.26264228D-11 1.36091822D+00 2.83342775D-15
                 3.95975473D+01-1.17922717D-13 7.30059345D-12
                -9.65957135D+00
 ***** Axes restored to original set *****
 -------------------------------------------------------------------
 Center     Atomic                   Forces (Hartrees/Bohr)
 Number     Number              X              Y              Z
 -------------------------------------------------------------------
      1        6           0.000000000    0.000012571    0.000000000
      2        1           0.000000000    0.000128864    0.000000000
      3        7           0.000015406   -0.000008369    0.000000000
      4        1           0.000108464    0.000070509    0.000000000
      5        1           0.000016461   -0.000132857    0.000000000
      6        7          -0.000015406   -0.000008369    0.000000000
      7        1          -0.000016461   -0.000132857    0.000000000
      8        1          -0.000108464    0.000070509    0.000000000
 -------------------------------------------------------------------
 Cartesian Forces:  Max     0.000132857 RMS     0.000060102
 Force constants in Cartesian coordinates: 
                1             2             3             4             5 
      1  0.935194D+00
      2  0.000000D+00  0.803748D+00
      3  0.000000D+00  0.000000D+00  0.148685D+00
      4 -0.586991D-01  0.000000D+00  0.000000D+00  0.670373D-01
      5  0.000000D+00 -0.338359D+00  0.000000D+00  0.000000D+00  0.353762D+00
      6  0.000000D+00  0.000000D+00 -0.476911D-01  0.000000D+00  0.000000D+00
      7 -0.414311D+00  0.154163D+00  0.000000D+00 -0.110537D-02  0.191175D-02
      8  0.148208D+00 -0.238707D+00  0.000000D+00  0.339072D-01 -0.996057D-02
      9  0.000000D+00  0.000000D+00 -0.445840D-01  0.000000D+00  0.000000D+00
     10 -0.257061D-01 -0.165105D-01  0.000000D+00  0.866731D-03  0.820929D-04
     11  0.166555D-01  0.150594D-01  0.000000D+00  0.130004D-02  0.748199D-03
     12  0.000000D+00  0.000000D+00 -0.667512D-02  0.000000D+00  0.000000D+00
     13  0.176987D-02  0.352853D-01  0.000000D+00 -0.393046D-02  0.945423D-03
     14  0.721908D-02 -0.904692D-02  0.000000D+00  0.996993D-03  0.151099D-02
     15  0.000000D+00  0.000000D+00  0.762092D-03  0.000000D+00  0.000000D+00
     16 -0.414311D+00 -0.154163D+00  0.000000D+00 -0.110537D-02 -0.191175D-02
     17 -0.148208D+00 -0.238707D+00  0.000000D+00 -0.339072D-01 -0.996057D-02
     18  0.000000D+00  0.000000D+00 -0.445840D-01  0.000000D+00  0.000000D+00
     19  0.176987D-02 -0.352853D-01  0.000000D+00 -0.393046D-02 -0.945423D-03
     20 -0.721908D-02 -0.904692D-02  0.000000D+00 -0.996993D-03  0.151099D-02
     21  0.000000D+00  0.000000D+00  0.762092D-03  0.000000D+00  0.000000D+00
     22 -0.257061D-01  0.165105D-01  0.000000D+00  0.866731D-03 -0.820928D-04
     23 -0.166555D-01  0.150594D-01  0.000000D+00 -0.130004D-02  0.748199D-03
     24  0.000000D+00  0.000000D+00 -0.667512D-02  0.000000D+00  0.000000D+00
                6             7             8             9            10 
      6  0.283472D-01
      7  0.000000D+00  0.882328D+00
      8  0.000000D+00 -0.248930D-01  0.826520D+00
      9  0.583337D-02  0.000000D+00  0.000000D+00  0.470382D-01
     10  0.000000D+00 -0.322350D+00 -0.168822D+00  0.000000D+00  0.335745D+00
     11  0.000000D+00 -0.173099D+00 -0.184755D+00  0.000000D+00  0.175940D+00
     12 -0.369298D-02  0.000000D+00  0.000000D+00 -0.788637D-02  0.000000D+00
     13  0.000000D+00 -0.760493D-01  0.303158D-01  0.000000D+00  0.104022D-01
     14  0.000000D+00  0.289979D-01 -0.422649D+00  0.000000D+00  0.464721D-02
     15  0.753157D-02  0.000000D+00  0.000000D+00 -0.145031D-01  0.000000D+00
     16  0.000000D+00 -0.728898D-01 -0.139354D-01  0.000000D+00  0.191782D-02
     17  0.000000D+00  0.139354D-01  0.306035D-01  0.000000D+00  0.535671D-02
     18  0.583337D-02  0.000000D+00  0.000000D+00  0.126728D-01  0.000000D+00
     19  0.000000D+00  0.245976D-02  0.575796D-03  0.000000D+00 -0.153371D-03
     20  0.000000D+00  0.487803D-02  0.703194D-03  0.000000D+00 -0.207022D-03
     21  0.753157D-02  0.000000D+00  0.000000D+00 -0.374734D-02  0.000000D+00
     22  0.000000D+00  0.191782D-02 -0.535671D-02  0.000000D+00 -0.722032D-03
     23  0.000000D+00 -0.589414D-02 -0.175606D-02  0.000000D+00 -0.486912D-03
     24 -0.369298D-02  0.000000D+00  0.000000D+00  0.517635D-02  0.000000D+00
               11            12            13            14            15 
     11  0.179425D+00
     12  0.000000D+00  0.115878D-01
     13 -0.273749D-01  0.000000D+00  0.672896D-01
     14 -0.904817D-02  0.000000D+00 -0.377944D-01  0.438332D+00
     15  0.000000D+00 -0.147757D-02  0.000000D+00  0.000000D+00  0.116695D-01
     16  0.589414D-02  0.000000D+00  0.245976D-02 -0.487803D-02  0.000000D+00
     17 -0.175606D-02  0.000000D+00 -0.575796D-03  0.703194D-03  0.000000D+00
     18  0.000000D+00  0.517635D-02  0.000000D+00  0.000000D+00 -0.374734D-02
     19  0.197210D-03  0.000000D+00 -0.178834D-02  0.604215D-03  0.000000D+00
     20 -0.551290D-03  0.000000D+00 -0.604215D-03  0.749210D-03  0.000000D+00
     21  0.000000D+00 -0.473768D-03  0.000000D+00  0.000000D+00  0.238651D-03
     22  0.486912D-03  0.000000D+00 -0.153371D-03  0.207022D-03  0.000000D+00
     23  0.877565D-03  0.000000D+00 -0.197210D-03 -0.551290D-03  0.000000D+00
     24  0.000000D+00  0.344161D-02  0.000000D+00  0.000000D+00 -0.473768D-03
               16            17            18            19            20 
     16  0.882328D+00
     17  0.248930D-01  0.826520D+00
     18  0.000000D+00  0.000000D+00  0.470382D-01
     19 -0.760493D-01 -0.303158D-01  0.000000D+00  0.672896D-01
     20 -0.289979D-01 -0.422649D+00  0.000000D+00  0.377944D-01  0.438332D+00
     21  0.000000D+00  0.000000D+00 -0.145031D-01  0.000000D+00  0.000000D+00
     22 -0.322350D+00  0.168822D+00  0.000000D+00  0.104022D-01 -0.464721D-02
     23  0.173099D+00 -0.184755D+00  0.000000D+00  0.273749D-01 -0.904817D-02
     24  0.000000D+00  0.000000D+00 -0.788637D-02  0.000000D+00  0.000000D+00
               21            22            23            24 
     21  0.116695D-01
     22  0.000000D+00  0.335745D+00
     23  0.000000D+00 -0.175940D+00  0.179425D+00
     24 -0.147757D-02  0.000000D+00  0.000000D+00  0.115878D-01
 Force constants in internal coordinates: 
                1             2             3             4             5 
      1  0.353762D+00
      2  0.614124D-02  0.603264D+00
      3  0.614124D-02  0.457903D-01  0.603264D+00
      4  0.473499D-03  0.503312D-02 -0.538306D-02  0.450095D+00
      5 -0.140303D-02  0.852551D-02 -0.316559D-02  0.338704D-03  0.442132D+00
      6 -0.140303D-02 -0.316559D-02  0.852551D-02  0.472231D-03  0.887893D-03
      7  0.473499D-03 -0.538306D-02  0.503312D-02  0.323889D-03  0.472231D-03
      8  0.348969D-02  0.872913D-02 -0.332402D-01 -0.250751D-02  0.361234D-02
      9  0.348969D-02 -0.332402D-01  0.872913D-02  0.451622D-03  0.706213D-03
     10 -0.697938D-02  0.245110D-01  0.245110D-01  0.205588D-02 -0.431855D-02
     11 -0.146028D-02  0.167052D-01  0.316120D-02  0.131915D-02 -0.784078D-02
     12  0.179227D-02  0.770998D-02 -0.109144D-02 -0.656785D-02  0.208466D-02
     13 -0.331988D-03 -0.244152D-01 -0.206976D-02  0.524870D-02  0.575612D-02
     14  0.179227D-02 -0.109144D-02  0.770998D-02 -0.121228D-03  0.110853D-02
     15 -0.146028D-02  0.316120D-02  0.167052D-01  0.188576D-03 -0.866184D-03
     16 -0.331988D-03 -0.206976D-02 -0.244152D-01 -0.673476D-04 -0.242350D-03
     17  0.000000D+00  0.000000D+00  0.000000D+00  0.000000D+00  0.000000D+00
     18  0.000000D+00  0.000000D+00  0.000000D+00  0.000000D+00  0.000000D+00
     19  0.000000D+00  0.000000D+00  0.000000D+00  0.000000D+00  0.000000D+00
     20  0.000000D+00  0.000000D+00  0.000000D+00  0.000000D+00  0.000000D+00
     21  0.000000D+00  0.000000D+00  0.000000D+00  0.000000D+00  0.000000D+00
     22  0.000000D+00  0.000000D+00  0.000000D+00  0.000000D+00  0.000000D+00
     23  0.000000D+00  0.000000D+00  0.000000D+00  0.000000D+00  0.000000D+00
     24  0.000000D+00  0.000000D+00  0.000000D+00  0.000000D+00  0.000000D+00
                6             7             8             9            10 
      6  0.442132D+00
      7  0.338704D-03  0.450095D+00
      8  0.706212D-03  0.451622D-03  0.108189D+00
      9  0.361234D-02 -0.250751D-02 -0.353062D-01  0.108189D+00
     10 -0.431855D-02  0.205588D-02 -0.728833D-01 -0.728833D-01  0.145767D+00
     11 -0.866184D-03  0.188576D-03 -0.749065D-02 -0.408233D-02  0.115730D-01
     12  0.110853D-02 -0.121228D-03  0.890361D-02 -0.401595D-03 -0.850202D-02
     13 -0.242350D-03 -0.673477D-04 -0.141296D-02  0.448392D-02 -0.307096D-02
     14  0.208466D-02 -0.656785D-02 -0.401595D-03  0.890361D-02 -0.850202D-02
     15 -0.784078D-02  0.131915D-02 -0.408233D-02 -0.749065D-02  0.115730D-01
     16  0.575612D-02  0.524870D-02  0.448392D-02 -0.141296D-02 -0.307096D-02
     17  0.000000D+00  0.000000D+00  0.000000D+00  0.000000D+00  0.000000D+00
     18  0.000000D+00  0.000000D+00  0.000000D+00  0.000000D+00  0.000000D+00
     19  0.000000D+00  0.000000D+00  0.000000D+00  0.000000D+00  0.000000D+00
     20  0.000000D+00  0.000000D+00  0.000000D+00  0.000000D+00  0.000000D+00
     21  0.000000D+00  0.000000D+00  0.000000D+00  0.000000D+00  0.000000D+00
[...]
 asis sets
                                                            Raman Spectrum
 
     33  33         3                                                 1   1 1      11        1  11                                   
     55  44         1                                                 7   6 5      33        1  00          6  55 55                 
     99  97         7                                                 6   6 8      86        0  21          9  96 00                 
     11  16         2                                                 2   5 8      30        4  72          7  49 84                 
 
     XX  XX         X                                                 X   X X      XX        X  XX          X   X XX                 
     XX  X          X                                                              X         X                                       
     XX  X          X                                                                                                                
     XX  X          X                                                                                                                
     XX  X          X                                                                                                                
     X   X          X                                                                                                                
         X          X                                                                                                                
         X          X                                                                                                                
         X          X                                                                                                                
         X                                                                                                                           
         X                                                                                                                           
         X                                                                                                                           
         X                                                                                                                           
         X                                                                                                                           
         X                                                                                                                           
         X                                                                                                                           
         X                                                                                                                           
         X                                                                                                                           
         X                                                                                                                           
         X                                                                                                                           
 
 ***** Axes restored to original set *****
 -------------------------------------------------------------------
 Center     Atomic                   Forces (Hartrees/Bohr)
 Number     Number              X              Y              Z
 -------------------------------------------------------------------
      1        6           0.000000000    0.000000678    0.000000000
      2        1           0.000000000   -0.000000645    0.000000000
      3        7           0.000000886    0.000000147    0.000000000
      4        1           0.000000031   -0.000000224    0.000000000
      5        1          -0.000000151    0.000000062    0.000000000
      6        7          -0.000000886    0.000000147    0.000000000
      7        1           0.000000151    0.000000062    0.000000000
      8        1          -0.000000031   -0.000000224    0.000000000
 -------------------------------------------------------------------
 Cartesian Forces:  Max     0.000000886 RMS     0.000000332
 Force constants in Cartesian coordinates: 
                1             2             3             4             5 
      1  0.934536D+00
      2  0.000000D+00  0.803179D+00
      3  0.000000D+00  0.000000D+00  0.148772D+00
      4 -0.587273D-01  0.000000D+00  0.000000D+00  0.670612D-01
      5  0.000000D+00 -0.337980D+00  0.000000D+00  0.000000D+00  0.353378D+00
      6  0.000000D+00  0.000000D+00 -0.477225D-01  0.000000D+00  0.000000D+00
      7 -0.413975D+00  0.153984D+00  0.000000D+00 -0.110343D-02  0.191099D-02
      8  0.148032D+00 -0.238609D+00  0.000000D+00  0.338901D-01 -0.995768D-02
      9  0.000000D+00  0.000000D+00 -0.446014D-01  0.000000D+00  0.000000D+00
     10 -0.256989D-01 -0.165059D-01  0.000000D+00  0.865680D-03  0.826509D-04
     11  0.166468D-01  0.150541D-01  0.000000D+00  0.129992D-02  0.747538D-03
     12  0.000000D+00  0.000000D+00 -0.667776D-02  0.000000D+00  0.000000D+00
     13  0.176999D-02  0.352695D-01  0.000000D+00 -0.392921D-02  0.945086D-03
     14  0.721763D-02 -0.904427D-02  0.000000D+00  0.996336D-03  0.151129D-02
     15  0.000000D+00  0.000000D+00  0.754611D-03  0.000000D+00  0.000000D+00
     16 -0.413975D+00 -0.153984D+00  0.000000D+00 -0.110343D-02 -0.191099D-02
     17 -0.148032D+00 -0.238609D+00  0.000000D+00 -0.338901D-01 -0.995768D-02
     18  0.000000D+00  0.000000D+00 -0.446014D-01  0.000000D+00  0.000000D+00
     19  0.176999D-02 -0.352695D-01  0.000000D+00 -0.392921D-02 -0.945086D-03
     20 -0.721763D-02 -0.904427D-02  0.000000D+00 -0.996336D-03  0.151129D-02
     21  0.000000D+00  0.000000D+00  0.754611D-03  0.000000D+00  0.000000D+00
     22 -0.256989D-01  0.165059D-01  0.000000D+00  0.865680D-03 -0.826508D-04
     23 -0.166468D-01  0.150541D-01  0.000000D+00 -0.129992D-02  0.747538D-03
     24  0.000000D+00  0.000000D+00 -0.667776D-02  0.000000D+00  0.000000D+00
                6             7             8             9            10 
      6  0.283919D-01
      7  0.000000D+00  0.881683D+00
      8  0.000000D+00 -0.248722D-01  0.825903D+00
      9  0.582714D-02  0.000000D+00  0.000000D+00  0.471717D-01
     10  0.000000D+00 -0.322044D+00 -0.168613D+00  0.000000D+00  0.335436D+00
     11  0.000000D+00 -0.172890D+00 -0.184663D+00  0.000000D+00  0.175729D+00
     12 -0.368995D-02  0.000000D+00  0.000000D+00 -0.793693D-02  0.000000D+00
     13  0.000000D+00 -0.760807D-01  0.302738D-01  0.000000D+00  0.103983D-01
     14  0.000000D+00  0.289551D-01 -0.422212D+00  0.000000D+00  0.464591D-02
     15  0.752811D-02  0.000000D+00  0.000000D+00 -0.145513D-01  0.000000D+00
     16  0.000000D+00 -0.728561D-01 -0.139292D-01  0.000000D+00  0.191776D-02
     17  0.000000D+00  0.139292D-01  0.305917D-01  0.000000D+00  0.535592D-02
     18  0.582714D-02  0.000000D+00  0.000000D+00  0.126622D-01  0.000000D+00
     19  0.000000D+00  0.245874D-02  0.575177D-03  0.000000D+00 -0.153333D-03
     20  0.000000D+00  0.487598D-02  0.702587D-03  0.000000D+00 -0.207069D-03
     21  0.752811D-02  0.000000D+00  0.000000D+00 -0.374381D-02  0.000000D+00
     22  0.000000D+00  0.191776D-02 -0.535592D-02  0.000000D+00 -0.721836D-03
     23  0.000000D+00 -0.589273D-02 -0.175577D-02  0.000000D+00 -0.486957D-03
     24 -0.368995D-02  0.000000D+00  0.000000D+00  0.517238D-02  0.000000D+00
               11            12            13            14            15 
     11  0.179335D+00
     12  0.000000D+00  0.116445D-01
     13 -0.273620D-01  0.000000D+00  0.673239D-01
     14 -0.904443D-02  0.000000D+00 -0.377500D-01  0.437889D+00
     15  0.000000D+00 -0.148023D-02  0.000000D+00  0.000000D+00  0.117279D-01
     16  0.589273D-02  0.000000D+00  0.245874D-02 -0.487598D-02  0.000000D+00
     17 -0.175577D-02  0.000000D+00 -0.575177D-03  0.702587D-03  0.000000D+00
     18  0.000000D+00  0.517238D-02  0.000000D+00  0.000000D+00 -0.374381D-02
     19  0.197250D-03  0.000000D+00 -0.178764D-02  0.603931D-03  0.000000D+00
     20 -0.551165D-03  0.000000D+00 -0.603931D-03  0.749046D-03  0.000000D+00
     21  0.000000D+00 -0.473200D-03  0.000000D+00  0.000000D+00  0.237916D-03
     22  0.486957D-03  0.000000D+00 -0.153333D-03  0.207069D-03  0.000000D+00
     23  0.877402D-03  0.000000D+00 -0.197250D-03 -0.551165D-03  0.000000D+00
     24  0.000000D+00  0.344119D-02  0.000000D+00  0.000000D+00 -0.473200D-03
               16            17            18            19            20 
     16  0.881683D+00
     17  0.248722D-01  0.825903D+00
     18  0.000000D+00  0.000000D+00  0.471717D-01
     19 -0.760807D-01 -0.302738D-01  0.000000D+00  0.673239D-01
     20 -0.289551D-01 -0.422212D+00  0.000000D+00  0.377500D-01  0.437889D+00
     21  0.000000D+00  0.000000D+00 -0.145513D-01  0.000000D+00  0.000000D+00
     22 -0.322044D+00  0.168613D+00  0.000000D+00  0.103983D-01 -0.464591D-02
     23  0.172890D+00 -0.184663D+00  0.000000D+00  0.273620D-01 -0.904443D-02
     24  0.000000D+00  0.000000D+00 -0.793693D-02  0.000000D+00  0.000000D+00
               21            22            23            24 
     21  0.117279D-01
     22  0.000000D+00  0.335436D+00
     23  0.000000D+00 -0.175729D+00  0.179335D+00
     24 -0.148023D-02  0.000000D+00  0.000000D+00  0.116445D-01
 Red2BG is reusing G-inverse.
 Force constants in internal coordinates: 
                1             2             3             4             5 
      1  0.353378D+00
      2  0.613961D-02  0.602786D+00
      3  0.613961D-02  0.457675D-01  0.602786D+00
      4  0.473632D-03  0.503278D-02 -0.538237D-02  0.449658D+00
      5 -0.140334D-02  0.852366D-02 -0.316429D-02  0.338320D-03  0.441685D+00
      6 -0.140334D-02 -0.316429D-02  0.852366D-02  0.472208D-03  0.887689D-03
      7  0.473632D-03 -0.538237D-02  0.503278D-02  0.323651D-03  0.472208D-03
      8  0.348904D-02  0.872791D-02 -0.332278D-01 -0.250617D-02  0.361089D-02
      9  0.348904D-02 -0.332278D-01  0.872791D-02  0.451540D-03  0.705750D-03
     10 -0.697808D-02  0.244999D-01  0.244999D-01  0.205463D-02 -0.431664D-02
     11 -0.145920D-02  0.167035D-01  0.316057D-02  0.132024D-02 -0.783891D-02
     12  0.179162D-02  0.770566D-02 -0.109126D-02 -0.656674D-02  0.208466D-02
     13 -0.332425D-03 -0.244091D-01 -0.206931D-02  0.524649D-02  0.575425D-02
     14  0.179162D-02 -0.109126D-02  0.770566D-02 -0.121315D-03  0.110819D-02
     15 -0.145920D-02  0.316057D-02  0.167035D-01  0.188610D-03 -0.865907D-03
     16 -0.332425D-03 -0.206931D-02 -0.244091D-01 -0.672946D-04 -0.242281D-03
     17  0.000000D+00  0.000000D+00  0.000000D+00  0.000000D+00  0.000000D+00
     18  0.000000D+00  0.000000D+00  0.000000D+00  0.000000D+00  0.000000D+00
     19  0.000000D+00  0.000000D+00  0.000000D+00  0.000000D+00  0.000000D+00
     20  0.000000D+00  0.000000D+00  0.000000D+00  0.000000D+00  0.000000D+00
     21  0.000000D+00  0.000000D+00  0.000000D+00  0.000000D+00  0.000000D+00
     22  0.000000D+00  0.000000D+00  0.000000D+00  0.000000D+00  0.000000D+00
     23  0.000000D+00  0.000000D+00  0.000000D+00  0.000000D+00  0.000000D+00
     24  0.000000D+00  0.000000D+00  0.000000D+00  0.000000D+00  0.000000D+00
                6             7             8             9            10 
      6  0.441685D+00
      7  0.338320D-03  0.449658D+00
      8  0.705749D-03  0.451541D-03  0.108163D+00
      9  0.361089D-02 -0.250617D-02 -0.353002D-01  0.108163D+00
     10 -0.431664D-02  0.205463D-02 -0.728625D-01 -0.728625D-01  0.145725D+00
     11 -0.865907D-03  0.188610D-03 -0.748955D-02 -0.408278D-02  0.115723D-01
     12  0.110819D-02 -0.121315D-03  0.890286D-02 -0.401669D-03 -0.850119D-02
     13 -0.242281D-03 -0.672946D-04 -0.141331D-02  0.448445D-02 -0.307114D-02
     14  0.208466D-02 -0.656674D-02 -0.401669D-03  0.890286D-02 -0.850119D-02
     15 -0.783891D-02  0.132024D-02 -0.408278D-02 -0.748955D-02  0.115723D-01
     16  0.575425D-02  0.524649D-02  0.448445D-02 -0.141331D-02 -0.307113D-02
     17  0.000000D+00  0.000000D+00  0.000000D+00  0.000000D+00  0.000000D+00
     18  0.000000D+00  0.000000D+00  0.000000D+00  0.000000D+00  0.000000D+00
     19  0.000000D+00  0.000000D+00  0.000000D+00  0.000000D+00  0.000000D+00
     20  0.000000D+00  0.000000D+00  0.000000D+00  0.000000D+00  0.000000D+00
     21  0.000000D+00  0.000000D+00  0.000000D+00  0.000000D+00  0.000000D+00
     22  0.000000D+00  0.000000D+00  0.000000D+00  0.000000D+00  0.000000D+00
     23  0.000000D+00  0.000000D+00  0.000000D+00  0.000000D+00  0.000000D+00
     24  0.000000D+00  0.000000D+00  0.000000D+00  0.000000D+00  0.000000D+00
               11            12            13            14            15 
     11  0.850650D-01
     12 -0.453684D-01  0.834254D-01
     13 -0.396966D-01 -0.380570D-01  0.777536D-01
     14 -0.183375D-02  0.279472D-02 -0.960975D-03  0.834254D-01
     15  0.231979D-02 -0.183375D-02 -0.486042D-03 -0.453684D-01  0.850650D-01
     16 -0.486042D-03 -0.960975D-03  0.144702D-02 -0.380570D-01 -0.396966D-01
     17  0.000000D+00  0.000000D+00  0.000000D+00  0.000000D+00  0.000000D+00
     18  0.000000D+00  0.000000D+00  0.000000D+00  0.000000D+00  0.000000D+00
     19  0.000000D+00  0.000000D+00  0.000000D+00  0.000000D+00  0.000000D+00
     20  0.000000D+00  0.000000D+00  0.000000D+00  0.000000D+00  0.000000D+00
     21  0.000000D+00  0.000000D+00  0.000000D+00  0.000000D+00  0.000000D+00
     22  0.000000D+00  0.000000D+00  0.000000D+00  0.000000D+00  0.000000D+00
     23  0.000000D+00  0.000000D+00  0.000000D+00  0.000000D+00  0.000000D+00
     24  0.000000D+00  0.000000D+00  0.000000D+00  0.000000D+00  0.000000D+00
               16            17            18            19            20 
     16  0.777536D-01
     17  0.000000D+00  0.944313D-02
     18  0.000000D+00  0.437597D-02  0.130847D-01
     19  0.000000D+00  0.371259D-02 -0.546801D-02  0.156176D-01
     20  0.000000D+00 -0.135458D-02  0.324068D-02  0.643704D-02  0.110323D-01
     21  0.000000D+00 -0.369896D-02 -0.559008D-02  0.614502D-02  0.425390D-02
     22  0.000000D+00 -0.372054D-02 -0.369896D-02  0.201000D-02  0.203158D-02
     23  0.000000D+00  0.203158D-02  0.425390D-02 -0.576004D-02 -0.353772D-02
     24  0.000000D+00  0.201000D-02  0.614502D-02 -0.989505D-02 -0.576004D-02
               21            22            23            24 
     21  0.130847D-01
     22  0.437597D-02  0.944313D-02
     23  0.324068D-02 -0.135458D-02  0.110323D-01
     24 -0.546801D-02  0.371259D-02  0.643704D-02  0.156176D-01
 Leave Link  716 at Thu Feb 26 00:33:40 2015, MaxMem= 1073741824 cpu:       0.3
 (Enter /apps/gaussian/g09_c01/g09/l9999.exe)
 1\1\GINC-CX1-49-4-4\Freq\RPBEPBE\6-31G(d)\C1H5N2(1+)\JMF02\26-Feb-2015
 \0\\#p opt(VeryTight,CalcAll,Raman) Integral(Grid=UltraFine) PBEPBE/6-
 31g*\\Autjob by noodles.sh | Great noodly basis sets\\1,1\C,0.,0.42878
 19808,0.\H,0.,1.5233592986,0.\N,1.1738694995,-0.1763213046,0.\H,2.0325
 033007,0.3753896704,0.\H,1.2815875741,-1.1933760055,0.\N,-1.1738694995
 ,-0.1763213046,0.\H,-1.2815875741,-1.1933760055,0.\H,-2.0325033007,0.3
 753896704,0.\\Version=EM64L-G09RevC.01\State=1-A1\HF=-150.1959041\RMSD
 =3.854e-09\RMSF=3.320e-07\ZeroPoint=0.0708377\Thermal=0.0746823\Dipole
 =0.,-0.1125092,0.\DipoleDeriv=1.7123256,0.,0.,0.,0.3808313,0.,0.,0.,0.
 3344919,0.0890402,0.,0.,0.,0.1282915,0.,0.,0.,0.1568083,-0.9978625,0.0
 333149,0.,0.399612,-0.2627361,0.,0.,0.,-0.4837081,0.3847449,0.0452348,
 0.,0.0986336,0.2281703,0.,0.,0.,0.366157,0.2124348,-0.0507055,0.,-0.10
 75584,0.2800044,0.,0.,0.,0.371901,-0.9978625,-0.0333149,0.,-0.399612,-
 0.2627361,0.,0.,0.,-0.4837081,0.2124348,0.0507055,0.,0.1075584,0.28000
 44,0.,0.,0.,0.371901,0.3847449,-0.0452348,0.,-0.0986336,0.2281703,0.,0
 .,0.,0.366157\Polar=34.1313551,0.,22.0651587,0.,0.,9.8672589\PolarDeri
 v=0.,1.3021512,0.,0.,0.,0.,4.7403893,0.,-4.2609193,0.,0.,0.3524934,0.,
 0.,0.,0.,1.5630059,0.,0.,1.1538276,0.,0.,0.,0.,0.6793034,0.,7.7000144,
 0.,0.,0.5919472,0.,0.,0.,0.,1.4802647,0.,2.9008627,-1.4634297,-0.82092
 52,0.,0.,-0.0042432,-3.6411726,-0.6739358,3.501671,0.,0.,-0.4818539,0.
 ,0.,0.,4.3147842,-1.0614246,0.,6.6513525,1.4563855,1.211423,0.,0.,0.08
 73711,2.6178266,2.1011276,1.2766662,0.,0.,0.0889182,0.,0.,0.,0.6650502
 ,0.6556177,0.,1.8648066,-1.2209452,0.2952608,0.,0.,-0.0565117,-1.68650
 04,2.4445928,-6.4978848,0.,0.,-0.0792845,0.,0.,0.,0.0025175,-1.1158285
 ,0.,-2.9008627,-1.4634297,0.8209252,0.,0.,0.0042432,-3.6411726,0.67393
 58,3.501671,0.,0.,-0.4818539,0.,0.,0.,-4.3147842,-1.0614246,0.,-1.8648
 066,-1.2209452,-0.2952608,0.,0.,0.0565117,-1.6865004,-2.4445928,-6.497
 8848,0.,0.,-0.0792845,0.,0.,0.,-0.0025175,-1.1158285,0.,-6.6513525,1.4
 563855,-1.211423,0.,0.,-0.0873711,2.6178266,-2.1011276,1.2766662,0.,0.
 ,0.0889182,0.,0.,0.,-0.6650502,0.6556177,0.\HyperPolar=0.,39.6141709,0
 .,-9.6683527,0.,0.,0.,0.,1.3602855,0.\PG=C02V [C2(C1H1),SGV(H4N2)]\NIm
 ag=0\\0.93453570,0.,0.80317940,0.,0.,0.14877165,-0.05872732,0.,0.,0.06
 706125,0.,-0.33798026,0.,0.,0.35337797,0.,0.,-0.04772251,0.,0.,0.02839
 191,-0.41397523,0.15398404,0.,-0.00110343,0.00191099,0.,0.88168298,0.1
 4803162,-0.23860941,0.,0.03389007,-0.00995768,0.,-0.02487220,0.8259032
 5,0.,0.,-0.04460143,0.,0.,0.00582714,0.,0.,0.04717175,-0.02569894,-0.0
 1650590,0.,0.00086568,0.00008265,0.,-0.32204406,-0.16861335,0.,0.33543
 645,0.01664681,0.01505411,0.,0.00129992,0.00074754,0.,-0.17289044,-0.1
 8466287,0.,0.17572879,0.17933520,0.,0.,-0.00667776,0.,0.,-0.00368995,0
 .,0.,-0.00793693,0.,0.,0.01164450,0.00176999,0.03526946,0.,-0.00392921
 ,0.00094509,0.,-0.07608070,0.03027384,0.,0.01039828,-0.02736202,0.,0.0
 6732388,0.00721763,-0.00904427,0.,0.00099634,0.00151129,0.,0.02895512,
 -0.42221178,0.,0.00464591,-0.00904443,0.,-0.03775001,0.43788873,0.,0.,
 0.00075461,0.,0.,0.00752811,0.,0.,-0.01455127,0.,0.,-0.00148023,0.,0.,
 0.01172788,-0.41397523,-0.15398404,0.,-0.00110343,-0.00191099,0.,-0.07
 285606,-0.01392924,0.,0.00191776,0.00589273,0.,0.00245874,-0.00487598,
 0.,0.88168298,-0.14803162,-0.23860941,0.,-0.03389007,-0.00995768,0.,0.
 01392924,0.03059169,0.,0.00535592,-0.00175577,0.,-0.00057518,0.0007025
 9,0.,0.02487220,0.82590325,0.,0.,-0.04460143,0.,0.,0.00582714,0.,0.,0.
 01266217,0.,0.,0.00517238,0.,0.,-0.00374381,0.,0.,0.04717175,0.0017699
 9,-0.03526946,0.,-0.00392921,-0.00094509,0.,0.00245874,0.00057518,0.,-
 0.00015333,0.00019725,0.,-0.00178764,0.00060393,0.,-0.07608070,-0.0302
 7384,0.,0.06732388,-0.00721763,-0.00904427,0.,-0.00099634,0.00151129,0
 .,0.00487598,0.00070259,0.,-0.00020707,-0.00055117,0.,-0.00060393,0.00
 074905,0.,-0.02895512,-0.42221178,0.,0.03775001,0.43788873,0.,0.,0.000
 75461,0.,0.,0.00752811,0.,0.,-0.00374381,0.,0.,-0.00047320,0.,0.,0.000
 23792,0.,0.,-0.01455127,0.,0.,0.01172788,-0.02569894,0.01650590,0.,0.0
 0086568,-0.00008265,0.,0.00191776,-0.00535592,0.,-0.00072184,0.0004869
 6,0.,-0.00015333,0.00020707,0.,-0.32204406,0.16861335,0.,0.01039828,-0
 .00464591,0.,0.33543645,-0.01664681,0.01505411,0.,-0.00129992,0.000747
 54,0.,-0.00589273,-0.00175577,0.,-0.00048696,0.00087740,0.,-0.00019725
 ,-0.00055117,0.,0.17289044,-0.18466287,0.,0.02736202,-0.00904443,0.,-0
 .17572879,0.17933520,0.,0.,-0.00667776,0.,0.,-0.00368995,0.,0.,0.00517
 238,0.,0.,0.00344119,0.,0.,-0.00047320,0.,0.,-0.00793693,0.,0.,-0.0014
 8023,0.,0.,0.01164450\\0.,-0.00000068,0.,0.,0.00000065,0.,-0.00000089,
 -0.00000015,0.,-0.00000003,0.00000022,0.,0.00000015,-0.00000006,0.,0.0
 0000089,-0.00000015,0.,-0.00000015,-0.00000006,0.,0.00000003,0.0000002
 2,0.\\\@


 The arm of the moral universe is long, but it bends toward justice.
 -- Martin Luther King, Jr.
 Job cpu time:  0 days  0 hours  2 minutes 57.6 seconds.
 File lengths (MBytes):  RWF=      6 Int=      0 D2E=      0 Chk=      1 Scr=      1
 Normal termination of Gaussian 09 at Thu Feb 26 00:33:40 2015.
