 Entering Gaussian System, Link 0=g03
 Input=FORMA_PBEPBE_AUG-cc-pVDZ.com
 Output=FORMA_PBEPBE_AUG-cc-pVDZ.log
 Initial command:
 /apps/gaussian/g09_c01/g09/l1.exe /tmp/pbs.8910288.cx1b/Gau-16425.inp -scrdir=/tmp/pbs.8910288.cx1b/
 Entering Link 1 = /apps/gaussian/g09_c01/g09/l1.exe PID=     16431.
  
 Copyright (c) 1988,1990,1992,1993,1995,1998,2003,2009,2011,
            Gaussian, Inc.  All Rights Reserved.
  
 This is part of the Gaussian(R) 09 program.  It is based on
 the Gaussian(R) 03 system (copyright 2003, Gaussian, Inc.),
 the Gaussian(R) 98 system (copyright 1998, Gaussian, Inc.),
 the Gaussian(R) 94 system (copyright 1995, Gaussian, Inc.),
 the Gaussian 92(TM) system (copyright 1992, Gaussian, Inc.),
 the Gaussian 90(TM) system (copyright 1990, Gaussian, Inc.),
 the Gaussian 88(TM) system (copyright 1988, Gaussian, Inc.),
 the Gaussian 86(TM) system (copyright 1986, Carnegie Mellon
 University), and the Gaussian 82(TM) system (copyright 1983,
 Carnegie Mellon University). Gaussian is a federally registered
 trademark of Gaussian, Inc.
  
 This software contains proprietary and confidential information,
 including trade secrets, belonging to Gaussian, Inc.
  
 This software is provided under written license and may be
 used, copied, transmitted, or stored only in accord with that
 written license.
  
 The following legend is applicable only to US Government
 contracts under FAR:
  
                    RESTRICTED RIGHTS LEGEND
  
 Use, reproduction and disclosure by the US Government is
 subject to restrictions as set forth in subparagraphs (a)
 and (c) of the Commercial Computer Software - Restricted
 Rights clause in FAR 52.227-19.
  
 Gaussian, Inc.
 340 Quinnipiac St., Bldg. 40, Wallingford CT 06492
  
  
 ---------------------------------------------------------------
 Warning -- This program may not be used in any manner that
 competes with the business of Gaussian, Inc. or will provide
 assistance to any competitor of Gaussian, Inc.  The licensee
 of this program is prohibited from giving any competitor of
 Gaussian, Inc. access to this program.  By using this program,
 the user acknowledges that Gaussian, Inc. is engaged in the
 business of creating and licensing software in the field of
 computational chemistry and represents and warrants to the
 licensee that it is not a competitor of Gaussian, Inc. and that
 it will not use this program in any manner prohibited above.
 ---------------------------------------------------------------
  

 Cite this work as:
 Gaussian 09, Revision C.01,
 M. J. Frisch, G. W. Trucks, H. B. Schlegel, G. E. Scuseria, 
 M. A. Robb, J. R. Cheeseman, G. Scalmani, V. Barone, B. Mennucci, 
 G. A. Petersson, H. Nakatsuji, M. Caricato, X. Li, H. P. Hratchian, 
 A. F. Izmaylov, J. Bloino, G. Zheng, J. L. Sonnenberg, M. Hada, 
 M. Ehara, K. Toyota, R. Fukuda, J. Hasegawa, M. Ishida, T. Nakajima, 
 Y. Honda, O. Kitao, H. Nakai, T. Vreven, J. A. Montgomery, Jr., 
 J. E. Peralta, F. Ogliaro, M. Bearpark, J. J. Heyd, E. Brothers, 
 K. N. Kudin, V. N. Staroverov, T. Keith, R. Kobayashi, J. Normand, 
 K. Raghavachari, A. Rendell, J. C. Burant, S. S. Iyengar, J. Tomasi, 
 M. Cossi, N. Rega, J. M. Millam, M. Klene, J. E. Knox, J. B. Cross, 
 V. Bakken, C. Adamo, J. Jaramillo, R. Gomperts, R. E. Stratmann, 
 O. Yazyev, A. J. Austin, R. Cammi, C. Pomelli, J. W. Ochterski, 
 R. L. Martin, K. Morokuma, V. G. Zakrzewski, G. A. Voth, 
 P. Salvador, J. J. Dannenberg, S. Dapprich, A. D. Daniels, 
 O. Farkas, J. B. Foresman, J. V. Ortiz, J. Cioslowski, 
 and D. J. Fox, Gaussian, Inc., Wallingford CT, 2010.
 
 ******************************************
 Gaussian 09:  EM64L-G09RevC.01 23-Sep-2011
                26-Feb-2015 
 ******************************************
 %Chk=FORMA_PBEPBE_AUG-cc-pVDZ.chk
 %Mem=8Gb
 %nproc=8
 Will use up to    8 processors via shared memory.
 ----------------------------------------------------------------------
 #p opt(VeryTight,CalcAll,Raman) Integral(Grid=UltraFine) PBEPBE/AUG-cc
 -pVDZ
 ----------------------------------------------------------------------
 1/7=1,10=4,14=-1,18=20,19=15,26=3,38=1/1,3;
 2/9=110,12=2,17=6,18=5,40=1/2;
 3/5=16,7=10,11=2,16=1,25=1,30=1,71=2,74=1009,75=-5/1,2,3;
 4//1;
 5/5=2,38=5/2;
 8/6=4,10=90,11=11/1;
 10/13=10,15=4/2;
 11/6=3,8=1,9=11,15=111,16=1/1,2,10;
 10/6=1/2;
 6/7=2,8=2,9=2,10=2,18=1,28=1/1;
 7/10=1,25=1/1,2,3,16;
 1/7=1,10=4,14=-1,18=20,19=15/3(3);
 2/9=110/2;
 7/8=1,9=1,25=1,44=-1/16;
 99//99;
 2/9=110/2;
 3/5=16,7=10,11=2,16=1,25=1,30=1,71=2,74=1009,75=-5/1,2,3;
 4/5=5,16=3/1;
 5/5=2,38=5/2;
 8/6=4,10=90,11=11/1;
 10/13=10,15=4/2;
 11/6=3,8=1,9=11,15=111,16=1/1,2,10;
 10/6=1/2;
 7/10=1,25=1/1,2,3,16;
 1/7=1,10=4,14=-1,18=20,19=15/3(-9);
 2/9=110/2;
 6/7=2,8=2,9=2,10=2,18=1,19=2,28=1/1;
 7/8=1,9=1,25=1,44=-1/16;
 99//99;
 Leave Link    1 at Thu Feb 26 00:35:03 2015, MaxMem= 1073741824 cpu:       0.3
 (Enter /apps/gaussian/g09_c01/g09/l101.exe)
 ----------------------------------------------
 Autjob by noodles.sh | Great noodly basis sets
 ----------------------------------------------
 Charge =  1 Multiplicity = 1
 Symbolic Z-Matrix:
 C                     0.        0.42727   0. 
 H                     0.        1.51386   0. 
 N                     1.16818  -0.17499   0. 
 H                     2.0221    0.37151   0. 
 H                     1.27341  -1.18533   0. 
 N                    -1.16818  -0.17499   0. 
 H                    -1.27341  -1.18533   0. 
 H                    -2.0221    0.37151   0. 
 
 NAtoms=      8 NQM=        0 NQMF=       0 NMMI=      8 NMMIF=      0
                NMic=       0 NMicF=      0.
                    Isotopes and Nuclear Properties:
 (Nuclear quadrupole moments (NQMom) in fm**2, nuclear magnetic moments (NMagM)
  in nuclear magnetons)

  Atom         1           2           3           4           5           6           7           8
 IAtWgt=          12           1          14           1           1          14           1           1
 AtmWgt=  12.0000000   1.0078250  14.0030740   1.0078250   1.0078250  14.0030740   1.0078250   1.0078250
 NucSpn=           0           1           2           1           1           2           1           1
 AtZEff=   0.0000000   0.0000000   0.0000000   0.0000000   0.0000000   0.0000000   0.0000000   0.0000000
 NQMom=    0.0000000   0.0000000   2.0440000   0.0000000   0.0000000   2.0440000   0.0000000   0.0000000
 NMagM=    0.0000000   2.7928460   0.4037610   2.7928460   2.7928460   0.4037610   2.7928460   2.7928460
 Leave Link  101 at Thu Feb 26 00:35:03 2015, MaxMem= 1073741824 cpu:       0.9
 (Enter /apps/gaussian/g09_c01/g09/l103.exe)

 GradGradGradGradGradGradGradGradGradGradGradGradGradGradGradGradGradGrad
 Berny optimization.
 Initialization pass.
                           ----------------------------
                           !    Initial Parameters    !
                           ! (Angstroms and Degrees)  !
 --------------------------                            --------------------------
 ! Name  Definition              Value          Derivative Info.                !
 --------------------------------------------------------------------------------
 ! R1    R(1,2)                  1.0866         calculate D2E/DX2 analytically  !
 ! R2    R(1,3)                  1.3143         calculate D2E/DX2 analytically  !
 ! R3    R(1,6)                  1.3143         calculate D2E/DX2 analytically  !
 ! R4    R(3,4)                  1.0138         calculate D2E/DX2 analytically  !
 ! R5    R(3,5)                  1.0158         calculate D2E/DX2 analytically  !
 ! R6    R(6,7)                  1.0158         calculate D2E/DX2 analytically  !
 ! R7    R(6,8)                  1.0138         calculate D2E/DX2 analytically  !
 ! A1    A(2,1,3)              117.2736         calculate D2E/DX2 analytically  !
 ! A2    A(2,1,6)              117.2736         calculate D2E/DX2 analytically  !
 ! A3    A(3,1,6)              125.4529         calculate D2E/DX2 analytically  !
 ! A4    A(1,3,4)              120.1077         calculate D2E/DX2 analytically  !
 ! A5    A(1,3,5)              123.2199         calculate D2E/DX2 analytically  !
 ! A6    A(4,3,5)              116.6724         calculate D2E/DX2 analytically  !
 ! A7    A(1,6,7)              123.2199         calculate D2E/DX2 analytically  !
 ! A8    A(1,6,8)              120.1077         calculate D2E/DX2 analytically  !
 ! A9    A(7,6,8)              116.6724         calculate D2E/DX2 analytically  !
 ! D1    D(2,1,3,4)              0.0            calculate D2E/DX2 analytically  !
 ! D2    D(2,1,3,5)            180.0            calculate D2E/DX2 analytically  !
 ! D3    D(6,1,3,4)            180.0            calculate D2E/DX2 analytically  !
 ! D4    D(6,1,3,5)              0.0            calculate D2E/DX2 analytically  !
 ! D5    D(2,1,6,7)            180.0            calculate D2E/DX2 analytically  !
 ! D6    D(2,1,6,8)              0.0            calculate D2E/DX2 analytically  !
 ! D7    D(3,1,6,7)              0.0            calculate D2E/DX2 analytically  !
 ! D8    D(3,1,6,8)            180.0            calculate D2E/DX2 analytically  !
 --------------------------------------------------------------------------------
 Trust Radius=3.00D-01 FncErr=1.00D-07 GrdErr=1.00D-06
 Number of steps in this run=     34 maximum allowed number of steps=    100.
 GradGradGradGradGradGradGradGradGradGradGradGradGradGradGradGradGradGrad

 Leave Link  103 at Thu Feb 26 00:35:03 2015, MaxMem= 1073741824 cpu:       0.0
 (Enter /apps/gaussian/g09_c01/g09/l202.exe)
                          Input orientation:                          
 ---------------------------------------------------------------------
 Center     Atomic      Atomic             Coordinates (Angstroms)
 Number     Number       Type             X           Y           Z
 ---------------------------------------------------------------------
      1          6           0        0.000000    0.427270    0.000000
      2          1           0        0.000000    1.513864    0.000000
      3          7           0        1.168180   -0.174990    0.000000
      4          1           0        2.022103    0.371511    0.000000
      5          1           0        1.273414   -1.185325    0.000000
      6          7           0       -1.168180   -0.174990    0.000000
      7          1           0       -1.273414   -1.185325    0.000000
      8          1           0       -2.022103    0.371511    0.000000
 ---------------------------------------------------------------------
                    Distance matrix (angstroms):
                    1          2          3          4          5
     1  C    0.000000
     2  H    1.086594   0.000000
     3  N    1.314291   2.053502   0.000000
     4  H    2.022872   2.322471   1.013828   0.000000
     5  H    2.054762   2.984494   1.015801   1.727505   0.000000
     6  N    1.314291   2.053502   2.336360   3.236753   2.642377
     7  H    2.054762   2.984494   2.642377   3.644746   2.546828
     8  H    2.022872   2.322471   3.236753   4.044206   3.644746
                    6          7          8
     6  N    0.000000
     7  H    1.015801   0.000000
     8  H    1.013828   1.727505   0.000000
 Stoichiometry    CH5N2(1+)
 Framework group  C2V[C2(CH),SGV(H4N2)]
 Deg. of freedom     7
 Full point group                 C2V     NOp   4
 Largest Abelian subgroup         C2V     NOp   4
 Largest concise Abelian subgroup C2      NOp   2
                         Standard orientation:                         
 ---------------------------------------------------------------------
 Center     Atomic      Atomic             Coordinates (Angstroms)
 Number     Number       Type             X           Y           Z
 ---------------------------------------------------------------------
      1          6           0        0.000000    0.000000    0.427270
      2          1           0        0.000000    0.000000    1.513864
      3          7           0        0.000000    1.168180   -0.174990
      4          1           0        0.000000    2.022103    0.371511
      5          1           0        0.000000    1.273414   -1.185325
      6          7           0        0.000000   -1.168180   -0.174990
      7          1           0        0.000000   -1.273414   -1.185325
      8          1           0        0.000000   -2.022103    0.371511
 ---------------------------------------------------------------------
 Rotational constants (GHZ):     59.6815563     10.1627081      8.6839806
 Leave Link  202 at Thu Feb 26 00:35:03 2015, MaxMem= 1073741824 cpu:       0.0
 (Enter /apps/gaussian/g09_c01/g09/l301.exe)
 Standard basis: Aug-CC-pVDZ (5D, 7F)
 Ernie: Thresh=  0.10000D-02 Tol=  0.10000D-05 Strict=F.
 Ernie:  6 primitive shells out of 110 were deleted.
 There are    46 symmetry adapted basis functions of A1  symmetry.
 There are    13 symmetry adapted basis functions of A2  symmetry.
 There are    18 symmetry adapted basis functions of B1  symmetry.
 There are    37 symmetry adapted basis functions of B2  symmetry.
 Integral buffers will be    131072 words long.
 Raffenetti 2 integral format.
 Two-electron integral symmetry is turned on.
   114 basis functions,   184 primitive gaussians,   120 cartesian basis functions
    12 alpha electrons       12 beta electrons
       nuclear repulsion energy        79.4241064683 Hartrees.
 IExCor= 1009 DFT=T Ex=PBE Corr=PBE ExCW=0 ScaHFX=  0.000000
 ScaDFX=  1.000000  1.000000  1.000000  1.000000 ScalE2=  1.000000  1.000000
 IRadAn=      5 IRanWt=     -1 IRanGd=            0 ICorTp=0
 NAtoms=    8 NActive=    8 NUniq=    5 SFac= 2.56D+00 NAtFMM=   60 NAOKFM=F Big=F
 Leave Link  301 at Thu Feb 26 00:35:04 2015, MaxMem= 1073741824 cpu:       0.3
 (Enter /apps/gaussian/g09_c01/g09/l302.exe)
 NPDir=0 NMtPBC=     1 NCelOv=     1 NCel=       1 NClECP=     1 NCelD=      1
         NCelK=      1 NCelE2=     1 NClLst=     1 CellRange=     0.0.
 One-electron integrals computed using PRISM.
 One-electron integral symmetry used in STVInt
 NBasis=   114 RedAO= T  NBF=    46    13    18    37
 NBsUse=   114 1.00D-06 NBFU=    46    13    18    37
 Precomputing XC quadrature grid using
 IXCGrd= 2 IRadAn=           5 IRanWt=          -1 IRanGd=           0 AccXCQ= 0.00D+00.
 NRdTot=     686 NPtTot=      183350 NUsed=      188269 NTot=      188301
 NSgBfM=   120   120   120   120   120 NAtAll=     8     8.
 Leave Link  302 at Thu Feb 26 00:35:04 2015, MaxMem= 1073741824 cpu:       1.2
 (Enter /apps/gaussian/g09_c01/g09/l303.exe)
 DipDrv:  MaxL=1.
 Leave Link  303 at Thu Feb 26 00:35:04 2015, MaxMem= 1073741824 cpu:       0.2
 (Enter /apps/gaussian/g09_c01/g09/l401.exe)
 Harris functional with IExCor= 1009 diagonalized for initial guess.
 ExpMin= 2.97D-02 ExpMax= 9.05D+03 ExpMxC= 3.09D+02 IAcc=3 IRadAn=         5 AccDes= 0.00D+00
 HarFok:  IExCor= 1009 AccDes= 0.00D+00 IRadAn=         5 IDoV= 1
 ScaDFX=  1.000000  1.000000  1.000000  1.000000
 FoFCou: FMM=F IPFlag=           0 FMFlag=      100000 FMFlg1=           0
         NFxFlg=           0 DoJE=T BraDBF=F KetDBF=T FulRan=T
         Omega=  0.000000  0.000000  1.000000  0.000000  0.000000 ICntrl=     500 IOpCl=  0
         NMat0=    1 NMatS0=    1 NMatT0=    0 NMatD0=    1 NMtDS0=    0 NMtDT0=    0
         I1Cent=           4 NGrid=           0.
 Petite list used in FoFCou.
 Harris En= -150.296028623712    
 Initial guess orbital symmetries:
       Occupied  (B2) (A1) (A1) (A1) (B2) (A1) (A1) (B2) (B2) (A1)
                 (B1) (A2)
       Virtual   (B1) (A1) (B2) (A1) (B2) (A1) (B1) (A1) (B2) (A1)
                 (A1) (A2) (B2) (A1) (B1) (B2) (A1) (B2) (A1) (A1)
                 (B1) (B2) (B2) (A1) (A2) (B1) (A1) (B2) (B2) (A1)
                 (A2) (B1) (A1) (A1) (A1) (B2) (A1) (A2) (B1) (B2)
                 (A1) (B2) (B2) (A1) (B1) (B2) (A1) (B2) (A2) (B2)
                 (A1) (B1) (A1) (A2) (B2) (B1) (A1) (A1) (B2) (A2)
                 (A1) (B1) (B2) (A1) (B1) (B2) (A1) (A2) (B2) (A1)
                 (B1) (A2) (B1) (A1) (B2) (B2) (A2) (A1) (A1) (B1)
                 (B2) (A1) (B2) (A1) (B2) (B2) (A1) (A1) (B1) (A2)
                 (B2) (B1) (A2) (A1) (B2) (A1) (B2) (A1) (B2) (A1)
                 (B2) (A1)
 The electronic state of the initial guess is 1-A1.
 Leave Link  401 at Thu Feb 26 00:35:04 2015, MaxMem= 1073741824 cpu:       1.8
 (Enter /apps/gaussian/g09_c01/g09/l502.exe)
 Closed shell SCF:
 Requested convergence on RMS density matrix=1.00D-08 within 128 cycles.
 Requested convergence on MAX density matrix=1.00D-06.
 Requested convergence on             energy=1.00D-06.
 No special actions if energy rises.
 Using DIIS extrapolation, IDIIS=  1040.
 Integral symmetry usage will be decided dynamically.
       188184 words used for storage of precomputed grid.
 Keep J ints in memory in canonical form, NReq=27554120.
 IEnd=      251662 IEndB=      251662 NGot=  1073741824 MDV=  1047163865
 LenX=  1047163865 LenY=  1047149024
 Symmetry not used in FoFDir.
 MinBra= 0 MaxBra= 2 Meth= 1.
 IRaf=       0 NMat=   1 IRICut=       1 DoRegI=T DoRafI=F ISym2E= 0 JSym2E=0.

 Cycle   1  Pass 1  IDiag  1:
 E= -150.189964946725    
 DIIS: error= 1.96D-02 at cycle   1 NSaved=   1.
 NSaved= 1 IEnMin= 1 EnMin= -150.189964946725     IErMin= 1 ErrMin= 1.96D-02
 ErrMax= 1.96D-02 EMaxC= 1.00D-01 BMatC= 4.24D-02 BMatP= 4.24D-02
 IDIUse=3 WtCom= 8.04D-01 WtEn= 1.96D-01
 Coeff-Com:  0.100D+01
 Coeff-En:   0.100D+01
 Coeff:      0.100D+01
 Gap=     0.161 Goal=   None    Shift=    0.000
 GapD=    0.161 DampG=1.000 DampE=0.500 DampFc=0.5000 IDamp=-1.
 Damping current iteration by 5.00D-01
 RMSDP=3.06D-03 MaxDP=9.62D-02              OVMax= 1.54D-01

 Cycle   2  Pass 1  IDiag  1:
 E= -150.196811730482     Delta-E=       -0.006846783757 Rises=F Damp=T
 DIIS: error= 7.95D-03 at cycle   2 NSaved=   2.
 NSaved= 2 IEnMin= 2 EnMin= -150.196811730482     IErMin= 2 ErrMin= 7.95D-03
 ErrMax= 7.95D-03 EMaxC= 1.00D-01 BMatC= 5.37D-03 BMatP= 4.24D-02
 IDIUse=3 WtCom= 9.21D-01 WtEn= 7.95D-02
 Coeff-Com:  0.241D+00 0.759D+00
 Coeff-En:   0.406D+00 0.594D+00
 Coeff:      0.254D+00 0.746D+00
 Gap=     0.207 Goal=   None    Shift=    0.000
 RMSDP=1.36D-03 MaxDP=4.73D-02 DE=-6.85D-03 OVMax= 1.19D-01

 Cycle   3  Pass 1  IDiag  1:
 E= -150.221954103669     Delta-E=       -0.025142373187 Rises=F Damp=F
 DIIS: error= 3.18D-03 at cycle   3 NSaved=   3.
 NSaved= 3 IEnMin= 3 EnMin= -150.221954103669     IErMin= 3 ErrMin= 3.18D-03
 ErrMax= 3.18D-03 EMaxC= 1.00D-01 BMatC= 1.13D-03 BMatP= 5.37D-03
 IDIUse=3 WtCom= 9.68D-01 WtEn= 3.18D-02
 Coeff-Com:  0.903D-01 0.378D+00 0.531D+00
 Coeff-En:   0.000D+00 0.000D+00 0.100D+01
 Coeff:      0.875D-01 0.366D+00 0.546D+00
 Gap=     0.204 Goal=   None    Shift=    0.000
 RMSDP=3.57D-04 MaxDP=1.26D-02 DE=-2.51D-02 OVMax= 2.09D-02

 Cycle   4  Pass 1  IDiag  1:
 E= -150.223002718688     Delta-E=       -0.001048615019 Rises=F Damp=F
 DIIS: error= 1.39D-03 at cycle   4 NSaved=   4.
 NSaved= 4 IEnMin= 4 EnMin= -150.223002718688     IErMin= 4 ErrMin= 1.39D-03
 ErrMax= 1.39D-03 EMaxC= 1.00D-01 BMatC= 1.32D-04 BMatP= 1.13D-03
 IDIUse=3 WtCom= 9.86D-01 WtEn= 1.39D-02
 Coeff-Com:  0.103D-01 0.860D-01 0.287D+00 0.617D+00
 Coeff-En:   0.000D+00 0.000D+00 0.676D-01 0.932D+00
 Coeff:      0.101D-01 0.848D-01 0.284D+00 0.621D+00
 Gap=     0.205 Goal=   None    Shift=    0.000
 RMSDP=1.00D-04 MaxDP=2.81D-03 DE=-1.05D-03 OVMax= 4.54D-03

 Cycle   5  Pass 1  IDiag  1:
 E= -150.223135306913     Delta-E=       -0.000132588225 Rises=F Damp=F
 DIIS: error= 1.98D-04 at cycle   5 NSaved=   5.
 NSaved= 5 IEnMin= 5 EnMin= -150.223135306913     IErMin= 5 ErrMin= 1.98D-04
 ErrMax= 1.98D-04 EMaxC= 1.00D-01 BMatC= 4.00D-06 BMatP= 1.32D-04
 IDIUse=3 WtCom= 9.98D-01 WtEn= 1.98D-03
 Coeff-Com: -0.743D-03 0.141D-01 0.897D-01 0.255D+00 0.641D+00
 Coeff-En:   0.000D+00 0.000D+00 0.000D+00 0.000D+00 0.100D+01
 Coeff:     -0.741D-03 0.141D-01 0.895D-01 0.255D+00 0.642D+00
 Gap=     0.205 Goal=   None    Shift=    0.000
 RMSDP=1.63D-05 MaxDP=4.04D-04 DE=-1.33D-04 OVMax= 6.52D-04

 Cycle   6  Pass 1  IDiag  1:
 E= -150.223139306245     Delta-E=       -0.000003999333 Rises=F Damp=F
 DIIS: error= 2.13D-05 at cycle   6 NSaved=   6.
 NSaved= 6 IEnMin= 6 EnMin= -150.223139306245     IErMin= 6 ErrMin= 2.13D-05
 ErrMax= 2.13D-05 EMaxC= 1.00D-01 BMatC= 4.89D-08 BMatP= 4.00D-06
 IDIUse=1 WtCom= 1.00D+00 WtEn= 0.00D+00
 Coeff-Com: -0.280D-03 0.129D-02 0.170D-01 0.550D-01 0.177D+00 0.750D+00
 Coeff:     -0.280D-03 0.129D-02 0.170D-01 0.550D-01 0.177D+00 0.750D+00
 Gap=     0.205 Goal=   None    Shift=    0.000
 RMSDP=2.61D-06 MaxDP=5.39D-05 DE=-4.00D-06 OVMax= 5.69D-05

 Cycle   7  Pass 1  IDiag  1:
 E= -150.223139354503     Delta-E=       -0.000000048257 Rises=F Damp=F
 DIIS: error= 2.78D-06 at cycle   7 NSaved=   7.
 NSaved= 7 IEnMin= 7 EnMin= -150.223139354503     IErMin= 7 ErrMin= 2.78D-06
 ErrMax= 2.78D-06 EMaxC= 1.00D-01 BMatC= 8.19D-10 BMatP= 4.89D-08
 IDIUse=1 WtCom= 1.00D+00 WtEn= 0.00D+00
 Coeff-Com:  0.320D-04-0.501D-04 0.134D-02 0.586D-02 0.182D-01 0.130D+00
 Coeff-Com:  0.845D+00
 Coeff:      0.320D-04-0.501D-04 0.134D-02 0.586D-02 0.182D-01 0.130D+00
 Coeff:      0.845D+00
 Gap=     0.205 Goal=   None    Shift=    0.000
 RMSDP=2.95D-07 MaxDP=7.12D-06 DE=-4.83D-08 OVMax= 7.98D-06

 Cycle   8  Pass 1  IDiag  1:
 E= -150.223139355361     Delta-E=       -0.000000000858 Rises=F Damp=F
 DIIS: error= 1.35D-07 at cycle   8 NSaved=   8.
 NSaved= 8 IEnMin= 8 EnMin= -150.223139355361     IErMin= 8 ErrMin= 1.35D-07
 ErrMax= 1.35D-07 EMaxC= 1.00D-01 BMatC= 1.44D-12 BMatP= 8.19D-10
 IDIUse=1 WtCom= 1.00D+00 WtEn= 0.00D+00
 Coeff-Com:  0.740D-05-0.126D-04 0.118D-03 0.578D-03 0.179D-02 0.140D-01
 Coeff-Com:  0.111D+00 0.872D+00
 Coeff:      0.740D-05-0.126D-04 0.118D-03 0.578D-03 0.179D-02 0.140D-01
 Coeff:      0.111D+00 0.872D+00
 Gap=     0.205 Goal=   None    Shift=    0.000
 RMSDP=1.71D-08 MaxDP=4.09D-07 DE=-8.58D-10 OVMax= 5.20D-07

 Cycle   9  Pass 1  IDiag  1:
 E= -150.223139355364     Delta-E=       -0.000000000003 Rises=F Damp=F
 DIIS: error= 2.64D-08 at cycle   9 NSaved=   9.
 NSaved= 9 IEnMin= 9 EnMin= -150.223139355364     IErMin= 9 ErrMin= 2.64D-08
 ErrMax= 2.64D-08 EMaxC= 1.00D-01 BMatC= 5.41D-14 BMatP= 1.44D-12
 IDIUse=1 WtCom= 1.00D+00 WtEn= 0.00D+00
 Coeff-Com:  0.110D-05-0.228D-05 0.843D-05 0.397D-04 0.131D-03 0.112D-02
 Coeff-Com:  0.108D-01 0.200D+00 0.788D+00
 Coeff:      0.110D-05-0.228D-05 0.843D-05 0.397D-04 0.131D-03 0.112D-02
 Coeff:      0.108D-01 0.200D+00 0.788D+00
 Gap=     0.205 Goal=   None    Shift=    0.000
 RMSDP=2.69D-09 MaxDP=1.04D-07 DE=-2.79D-12 OVMax= 1.21D-07

 SCF Done:  E(RPBE-PBE) =  -150.223139355     A.U. after    9 cycles
             Convg  =    0.2691D-08             -V/T =  2.0061
 KE= 1.493148565474D+02 PE=-5.024791422080D+02 EE= 1.235170398370D+02
 Leave Link  502 at Thu Feb 26 00:35:06 2015, MaxMem= 1073741824 cpu:      14.2
 (Enter /apps/gaussian/g09_c01/g09/l801.exe)
 Range of M.O.s used for correlation:     1   114
 NBasis=   114 NAE=    12 NBE=    12 NFC=     0 NFV=     0
 NROrb=    114 NOA=    12 NOB=    12 NVA=   102 NVB=   102

 **** Warning!!: The largest alpha MO coefficient is  0.22696412D+02

 Leave Link  801 at Thu Feb 26 00:35:06 2015, MaxMem= 1073741824 cpu:       0.1
 (Enter /apps/gaussian/g09_c01/g09/l1002.exe)
 Minotr:  Closed shell wavefunction.
          Direct CPHF calculation.
          Differentiating once with respect to electric field.
                with respect to dipole field.
          Electric field/nuclear overlap derivatives assumed to be zero.
          Using symmetry in CPHF.
          Requested convergence is 1.0D-08 RMS, and 1.0D-07 maximum.
          Secondary convergence is 1.0D-12 RMS, and 1.0D-12 maximum.
          NewPWx=F KeepS1=T KeepF1=T KeepIn=T MapXYZ=F SortEE=F KeepMc=T.
          MDV=    1073741756 using IRadAn=       1.
 Generate precomputed XC quadrature information.
          Keep J ints in memory in canonical form, NReq=27181278.
 Symmetry not used in FoFDir.
 MinBra= 0 MaxBra= 2 Meth= 1.
 IRaf=       0 NMat=   1 IRICut=       1 DoRegI=T DoRafI=F ISym2E= 0 JSym2E=0.
          Solving linear equations simultaneously, MaxMat=       0.
          There are     3 degrees of freedom in the 1st order CPHF.  IDoFFX=0.
      3 vectors produced by pass  0 Test12= 4.08D-14 3.33D-08 XBig12= 6.16D+01 6.99D+00.
 AX will form     3 AO Fock derivatives at one time.
      3 vectors produced by pass  1 Test12= 4.08D-14 3.33D-08 XBig12= 3.67D+01 2.02D+00.
      3 vectors produced by pass  2 Test12= 4.08D-14 3.33D-08 XBig12= 3.07D+00 4.36D-01.
      3 vectors produced by pass  3 Test12= 4.08D-14 3.33D-08 XBig12= 8.32D-02 6.39D-02.
      3 vectors produced by pass  4 Test12= 4.08D-14 3.33D-08 XBig12= 1.14D-02 2.91D-02.
      3 vectors produced by pass  5 Test12= 4.08D-14 3.33D-08 XBig12= 1.85D-03 1.02D-02.
      3 vectors produced by pass  6 Test12= 4.08D-14 3.33D-08 XBig12= 4.17D-05 2.03D-03.
      2 vectors produced by pass  7 Test12= 4.08D-14 3.33D-08 XBig12= 4.70D-07 1.64D-04.
      2 vectors produced by pass  8 Test12= 4.08D-14 3.33D-08 XBig12= 9.11D-10 6.75D-06.
      2 vectors produced by pass  9 Test12= 4.08D-14 3.33D-08 XBig12= 1.91D-11 1.19D-06.
      1 vectors produced by pass 10 Test12= 4.08D-14 3.33D-08 XBig12= 2.87D-13 1.05D-07.
 Inverted reduced A of dimension    28 with in-core refinement.
 End of Minotr Frequency-dependent properties file   721 does not exist.
 End of Minotr Frequency-dependent properties file   722 does not exist.
 Leave Link 1002 at Thu Feb 26 00:35:12 2015, MaxMem= 1073741824 cpu:      47.7
 (Enter /apps/gaussian/g09_c01/g09/l1101.exe)
 Using compressed storage, NAtomX=     8.
 Will process   9 centers per pass.
 Leave Link 1101 at Thu Feb 26 00:35:12 2015, MaxMem= 1073741824 cpu:       1.1
 (Enter /apps/gaussian/g09_c01/g09/l1102.exe)
 Symmetrizing basis deriv contribution to polar:
 IMax=3 JMax=2 DiffMx= 0.00D+00
 Leave Link 1102 at Thu Feb 26 00:35:13 2015, MaxMem= 1073741824 cpu:       0.5
 (Enter /apps/gaussian/g09_c01/g09/l1110.exe)
 Forming Gx(P) for the SCF density, NAtomX=     8.
 Integral derivatives from FoFDir/FoFCou, PRISM(SPDF).
 Do as many integral derivatives as possible in FoFDir.
 G2DrvN: MDV=    1073741656.
 G2DrvN: will do     9 centers at a time, making    1 passes doing MaxLOS=2.
 Calling FoFCou, ICntrl=  3507 FMM=F I1Cent=   0 AccDes= 0.00D+00.
 FoFCou: FMM=F IPFlag=           0 FMFlag=      100000 FMFlg1=           0
         NFxFlg=           0 DoJE=F BraDBF=F KetDBF=F FulRan=T
         Omega=  0.000000  0.000000  1.000000  0.000000  0.000000 ICntrl=    3507 IOpCl=  0
         NMat0=    1 NMatS0=    1 NMatT0=    0 NMatD0=    4 NMtDS0=    3 NMtDT0=    0
         I1Cent=           0 NGrid=           0.
 Petite list used in FoFCou.
 FoFDir/FoFCou used for L=0 through L=2.
 End of G2Drv Frequency-dependent properties file   721 does not exist.
 End of G2Drv Frequency-dependent properties file   722 does not exist.
 Leave Link 1110 at Thu Feb 26 00:35:18 2015, MaxMem= 1073741824 cpu:      41.2
 (Enter /apps/gaussian/g09_c01/g09/l1002.exe)
 Minotr:  Closed shell wavefunction.
          IDoAtm=11111111
          Direct CPHF calculation.
          Differentiating once with respect to electric field.
                with respect to dipole field.
          Differentiating once with respect to nuclear coordinates.
          Using symmetry in CPHF.
          Requested convergence is 1.0D-08 RMS, and 1.0D-07 maximum.
          Secondary convergence is 1.0D-12 RMS, and 1.0D-12 maximum.
          NewPWx=T KeepS1=F KeepF1=F KeepIn=T MapXYZ=F SortEE=F KeepMc=T.
          MDV=    1073741740 using IRadAn=       1.
 Generate precomputed XC quadrature information.
          Keep J ints in memory in canonical form, NReq=27181446.
 Symmetry not used in FoFDir.
 MinBra= 0 MaxBra= 2 Meth= 1.
 IRaf=       0 NMat=   1 IRICut=       1 DoRegI=T DoRafI=F ISym2E= 0 JSym2E=0.
          Solving linear equations simultaneously, MaxMat=       0.
          There are    18 degrees of freedom in the 1st order CPHF.  IDoFFX=4.
 Will reuse    3 saved solutions.
     15 vectors produced by pass  0 Test12= 6.80D-15 5.56D-09 XBig12= 1.96D-01 1.78D-01.
 AX will form    15 AO Fock derivatives at one time.
     15 vectors produced by pass  1 Test12= 6.80D-15 5.56D-09 XBig12= 4.36D-02 1.28D-01.
     15 vectors produced by pass  2 Test12= 6.80D-15 5.56D-09 XBig12= 5.83D-04 5.05D-03.
     15 vectors produced by pass  3 Test12= 6.80D-15 5.56D-09 XBig12= 2.42D-06 2.51D-04.
     15 vectors produced by pass  4 Test12= 6.80D-15 5.56D-09 XBig12= 3.49D-09 9.38D-06.
      7 vectors produced by pass  5 Test12= 6.80D-15 5.56D-09 XBig12= 9.60D-13 2.50D-07.
 Inverted reduced A of dimension    82 with in-core refinement.
 FullF1:  Do perturbations    1 to    18.
 Isotropic polarizability for W=    0.000000       27.43 Bohr**3.
 FullF1:  Do perturbations    1 to     6.
 End of Minotr Frequency-dependent properties file   721 does not exist.
 End of Minotr Frequency-dependent properties file   722 does not exist.
 Leave Link 1002 at Thu Feb 26 00:35:28 2015, MaxMem= 1073741824 cpu:      80.4
 (Enter /apps/gaussian/g09_c01/g09/l601.exe)
 Copying SCF densities to generalized density rwf, IOpCl= 0 IROHF=0.

 **********************************************************************

            Population analysis using the SCF density.

 **********************************************************************

 Orbital symmetries:
       Occupied  (B2) (A1) (A1) (A1) (B2) (A1) (A1) (B2) (B2) (A1)
                 (B1) (A2)
       Virtual   (B1) (A1) (A1) (B2) (B2) (A1) (B1) (A1) (B2) (A1)
                 (A2) (A1) (B1) (B2) (A1) (A1) (B2) (B2) (A1) (B1)
                 (B2) (A1) (A2) (B2) (A1) (B1) (A1) (B2) (B2) (A1)
                 (A2) (B1) (A1) (A1) (A1) (B2) (A2) (B1) (A1) (B2)
                 (A1) (B2) (B2) (A1) (B1) (B2) (A1) (B2) (A2) (B2)
                 (B1) (A1) (A1) (A2) (B2) (B1) (A1) (A1) (B2) (A2)
                 (A1) (B1) (B2) (A1) (B1) (B2) (A1) (A2) (B2) (A1)
                 (B1) (A2) (B1) (A1) (B2) (A2) (B2) (A1) (A1) (B1)
                 (B2) (A1) (B2) (A1) (B2) (B2) (A1) (A1) (B1) (A2)
                 (B2) (B1) (A1) (A2) (B2) (A1) (B2) (A1) (B2) (A1)
                 (B2) (A1)
 The electronic state is 1-A1.
 Alpha  occ. eigenvalues --  -14.27267 -14.27266 -10.23091  -1.13891  -1.05869
 Alpha  occ. eigenvalues --   -0.83598  -0.76303  -0.74115  -0.67712  -0.61691
 Alpha  occ. eigenvalues --   -0.59601  -0.47750
 Alpha virt. eigenvalues --   -0.27218  -0.19953  -0.17371  -0.17037  -0.11714
 Alpha virt. eigenvalues --   -0.11622  -0.11070  -0.09456  -0.07567  -0.06468
 Alpha virt. eigenvalues --   -0.05222  -0.04414  -0.03896  -0.02635  -0.02343
 Alpha virt. eigenvalues --   -0.00764  -0.00583   0.01844   0.02141   0.04251
 Alpha virt. eigenvalues --    0.05210   0.05329   0.07954   0.08564   0.08878
 Alpha virt. eigenvalues --    0.11985   0.14924   0.17416   0.18792   0.19485
 Alpha virt. eigenvalues --    0.20485   0.20750   0.23193   0.25243   0.25590
 Alpha virt. eigenvalues --    0.27688   0.28256   0.28393   0.28838   0.31373
 Alpha virt. eigenvalues --    0.32708   0.33310   0.34402   0.38724   0.39668
 Alpha virt. eigenvalues --    0.44620   0.46300   0.49685   0.54574   0.54746
 Alpha virt. eigenvalues --    0.55176   0.55621   0.56374   0.59087   0.60209
 Alpha virt. eigenvalues --    0.61242   0.70360   0.84345   0.85963   0.91244
 Alpha virt. eigenvalues --    0.96740   0.99449   1.01159   1.03271   1.08832
 Alpha virt. eigenvalues --    1.11340   1.23116   1.25753   1.35669   1.36478
 Alpha virt. eigenvalues --    1.44566   1.45371   1.47658   1.48635   1.54210
 Alpha virt. eigenvalues --    1.65425   1.66525   1.68894   1.71296   1.74493
 Alpha virt. eigenvalues --    1.76886   1.77347   1.79227   1.82437   1.87316
 Alpha virt. eigenvalues --    1.96100   1.97577   2.00546   2.07896   2.09807
 Alpha virt. eigenvalues --    2.16198   2.20712   2.28881   2.28980   2.35369
 Alpha virt. eigenvalues --    2.50212   2.61802   2.69350   2.70475   2.94505
 Alpha virt. eigenvalues --    2.95369   3.23803
          Condensed to atoms (all electrons):
              1          2          3          4          5          6
     1  C    4.958213   0.098334   0.280509  -0.200500  -0.177788   0.280509
     2  H    0.098334   1.375871  -0.123937  -0.030769   0.052198  -0.123937
     3  N    0.280509  -0.123937   5.996378   0.419205   0.407800  -0.067421
     4  H   -0.200500  -0.030769   0.419205   0.956740  -0.205767   0.026806
     5  H   -0.177788   0.052198   0.407800  -0.205767   1.013117  -0.029717
     6  N    0.280509  -0.123937  -0.067421   0.026806  -0.029717   5.996378
     7  H   -0.177788   0.052198  -0.029717  -0.004276   0.009884   0.407800
     8  H   -0.200500  -0.030769   0.026806  -0.001603  -0.004276   0.419205
              7          8
     1  C   -0.177788  -0.200500
     2  H    0.052198  -0.030769
     3  N   -0.029717   0.026806
     4  H   -0.004276  -0.001603
     5  H    0.009884  -0.004276
     6  N    0.407800   0.419205
     7  H    1.013117  -0.205767
     8  H   -0.205767   0.956740
 Mulliken atomic charges:
              1
     1  C    1.139011
     2  H   -0.269188
     3  N    0.090376
     4  H    0.040164
     5  H   -0.065452
     6  N    0.090376
     7  H   -0.065452
     8  H    0.040164
 Sum of Mulliken atomic charges =   1.00000
 Mulliken charges with hydrogens summed into heavy atoms:
              1
     1  C    0.869822
     3  N    0.065089
     6  N    0.065089
 Sum of Mulliken charges with hydrogens summed into heavy atoms =   1.00000
 APT atomic charges:
              1
     1  C    0.781802
     2  H    0.128582
     3  N   -0.522538
     4  H    0.303145
     5  H    0.264201
     6  N   -0.522538
     7  H    0.264201
     8  H    0.303145
 Sum of APT charges=   1.00000
 APT Atomic charges with hydrogens summed into heavy atoms:
              1
     1  C    0.910384
     2  H    0.000000
     3  N    0.044808
     4  H    0.000000
     5  H    0.000000
     6  N    0.044808
     7  H    0.000000
     8  H    0.000000
 Sum of APT charges=   1.00000
 Electronic spatial extent (au):  <R**2>=            158.9825
 Charge=              1.0000 electrons
 Dipole moment (field-independent basis, Debye):
    X=              0.0000    Y=              0.0000    Z=             -0.2843  Tot=              0.2843
 Quadrupole moment (field-independent basis, Debye-Ang):
   XX=            -19.2179   YY=             -4.3582   ZZ=            -10.4871
   XY=              0.0000   XZ=              0.0000   YZ=              0.0000
 Traceless Quadrupole moment (field-independent basis, Debye-Ang):
   XX=             -7.8635   YY=              6.9962   ZZ=              0.8673
   XY=              0.0000   XZ=              0.0000   YZ=              0.0000
 Octapole moment (field-independent basis, Debye-Ang**2):
  XXX=              0.0000  YYY=              0.0000  ZZZ=             -3.2302  XYY=              0.0000
  XXY=              0.0000  XXZ=             -0.0966  XZZ=              0.0000  YZZ=              0.0000
  YYZ=             -0.1171  XYZ=              0.0000
 Hexadecapole moment (field-independent basis, Debye-Ang**3):
 XXXX=            -18.0786 YYYY=            -72.4667 ZZZZ=            -24.3902 XXXY=              0.0000
 XXXZ=              0.0000 YYYX=              0.0000 YYYZ=              0.0000 ZZZX=              0.0000
 ZZZY=              0.0000 XXYY=            -27.7861 XXZZ=             -9.7472 YYZZ=            -18.3944
 XXYZ=              0.0000 YYXZ=              0.0000 ZZXY=              0.0000
 N-N= 7.942410646830D+01 E-N=-5.024791423114D+02  KE= 1.493148565474D+02
 Symmetry A1   KE= 8.850032558057D+01
 Symmetry A2   KE= 3.528192905135D+00
 Symmetry B1   KE= 2.723135752374D+00
 Symmetry B2   KE= 5.456320230929D+01
  Exact polarizability:  18.663   0.000  38.191   0.000   0.000  25.431
 Approx polarizability:  27.185   0.000  70.913   0.000   0.000  40.404
 No NMR shielding tensors so no spin-rotation constants.
 Leave Link  601 at Thu Feb 26 00:35:28 2015, MaxMem= 1073741824 cpu:       1.1
 (Enter /apps/gaussian/g09_c01/g09/l701.exe)
 Compute integral second derivatives.
 ... and contract with generalized density number  0.
 Leave Link  701 at Thu Feb 26 00:35:28 2015, MaxMem= 1073741824 cpu:       1.3
 (Enter /apps/gaussian/g09_c01/g09/l702.exe)
 L702 exits ... SP integral derivatives will be done elsewhere.
 Leave Link  702 at Thu Feb 26 00:35:28 2015, MaxMem= 1073741824 cpu:       0.1
 (Enter /apps/gaussian/g09_c01/g09/l703.exe)
 Compute integral second derivatives, UseDBF=F ICtDFT=           0.
 Integral derivatives from FoFDir, PRISM(SPDF).
 Calling FoFJK, ICntrl=    100527 FMM=F ISym2X=1 I1Cent= 0 IOpClX= 0 NMat=1 NMatS=1 NMatT=0.
 FoFCou: FMM=F IPFlag=           0 FMFlag=      100000 FMFlg1=         800
         NFxFlg=           0 DoJE=F BraDBF=F KetDBF=F FulRan=T
         Omega=  0.000000  0.000000  1.000000  0.000000  0.000000 ICntrl=  100527 IOpCl=  0
         NMat0=    1 NMatS0=    1 NMatT0=    0 NMatD0=    1 NMtDS0=    0 NMtDT0=    0
         I1Cent=           0 NGrid=           0.
 Petite list used in FoFCou.
 Leave Link  703 at Thu Feb 26 00:35:33 2015, MaxMem= 1073741824 cpu:      34.7
 (Enter /apps/gaussian/g09_c01/g09/l716.exe)
 Dipole        =-4.58991411D-17-5.24372212D-14-1.11858650D-01
 Polarizability= 1.86626202D+01 4.03555450D-13 3.81910150D+01
                -3.43946846D-12-4.68938690D-13 2.54308139D+01
 HyperPolar    = 2.28435593D-10 2.29605172D-10 1.21890911D-10
                 2.76951139D-10-7.74756739D-01 4.66085866D-11
                 2.56287206D+01 9.56767596D-11 8.67701514D-12
                -8.43327732D+00
 ***** Axes restored to original set *****
 -------------------------------------------------------------------
 Center     Atomic                   Forces (Hartrees/Bohr)
 Number     Number              X              Y              Z
 -------------------------------------------------------------------
      1        6           0.000000000    0.000594440    0.000000000
      2        1           0.000000000    0.008216174    0.000000000
      3        7           0.002899864   -0.002229424    0.000000000
      4        1           0.004214301    0.003277936    0.000000000
      5        1           0.000324998   -0.005453818    0.000000000
      6        7          -0.002899864   -0.002229424    0.000000000
      7        1          -0.000324998   -0.005453818    0.000000000
      8        1          -0.004214301    0.003277936    0.000000000
 -------------------------------------------------------------------
 Cartesian Forces:  Max     0.008216174 RMS     0.002967377
 Force constants in Cartesian coordinates: 
                1             2             3             4             5 
      1  0.943973D+00
      2  0.000000D+00  0.822453D+00
      3  0.000000D+00  0.000000D+00  0.146211D+00
      4 -0.549217D-01  0.000000D+00  0.000000D+00  0.636502D-01
      5  0.000000D+00 -0.356984D+00  0.000000D+00  0.000000D+00  0.371878D+00
      6  0.000000D+00  0.000000D+00 -0.466807D-01  0.000000D+00  0.000000D+00
      7 -0.421914D+00  0.164332D+00  0.000000D+00 -0.152233D-02  0.890678D-03
      8  0.155495D+00 -0.237867D+00  0.000000D+00  0.340478D-01 -0.986648D-02
      9  0.000000D+00  0.000000D+00 -0.447278D-01  0.000000D+00  0.000000D+00
     10 -0.248861D-01 -0.170015D-01  0.000000D+00  0.974658D-03  0.151602D-03
     11  0.163265D-01  0.143959D-01  0.000000D+00  0.122020D-02  0.669148D-03
     12  0.000000D+00  0.000000D+00 -0.632951D-02  0.000000D+00  0.000000D+00
     13  0.227483D-02  0.344612D-01  0.000000D+00 -0.381657D-02  0.970799D-03
     14  0.587299D-02 -0.926284D-02  0.000000D+00  0.120557D-02  0.175053D-02
     15  0.000000D+00  0.000000D+00  0.129220D-02  0.000000D+00  0.000000D+00
     16 -0.421914D+00 -0.164332D+00  0.000000D+00 -0.152233D-02 -0.890677D-03
     17 -0.155495D+00 -0.237867D+00  0.000000D+00 -0.340478D-01 -0.986648D-02
     18  0.000000D+00  0.000000D+00 -0.447278D-01  0.000000D+00  0.000000D+00
     19  0.227483D-02 -0.344612D-01  0.000000D+00 -0.381657D-02 -0.970799D-03
     20 -0.587299D-02 -0.926284D-02  0.000000D+00 -0.120557D-02  0.175053D-02
     21  0.000000D+00  0.000000D+00  0.129220D-02  0.000000D+00  0.000000D+00
     22 -0.248861D-01  0.170015D-01  0.000000D+00  0.974658D-03 -0.151602D-03
     23 -0.163265D-01  0.143959D-01  0.000000D+00 -0.122020D-02  0.669148D-03
     24  0.000000D+00  0.000000D+00 -0.632951D-02  0.000000D+00  0.000000D+00
                6             7             8             9            10 
      6  0.257056D-01
      7  0.000000D+00  0.901166D+00
      8  0.000000D+00 -0.265534D-01  0.842868D+00
      9  0.669787D-02  0.000000D+00  0.000000D+00  0.441112D-01
     10  0.000000D+00 -0.333401D+00 -0.177141D+00  0.000000D+00  0.346264D+00
     11  0.000000D+00 -0.181388D+00 -0.185897D+00  0.000000D+00  0.183697D+00
     12 -0.385205D-02  0.000000D+00  0.000000D+00 -0.689152D-02  0.000000D+00
     13  0.000000D+00 -0.725091D-01  0.321506D-01  0.000000D+00  0.100331D-01
     14  0.000000D+00  0.306728D-01 -0.438563D+00  0.000000D+00  0.585704D-02
     15  0.764173D-02  0.000000D+00  0.000000D+00 -0.137612D-01  0.000000D+00
     16  0.000000D+00 -0.757741D-01 -0.133037D-01  0.000000D+00  0.176697D-02
     17  0.000000D+00  0.133037D-01  0.299988D-01  0.000000D+00  0.508788D-02
     18  0.669787D-02  0.000000D+00  0.000000D+00  0.122576D-01  0.000000D+00
     19  0.000000D+00  0.218857D-02  0.392564D-03  0.000000D+00 -0.941529D-04
     20  0.000000D+00  0.494609D-02  0.795157D-03  0.000000D+00 -0.178138D-03
     21  0.764173D-02  0.000000D+00  0.000000D+00 -0.346580D-02  0.000000D+00
     22  0.000000D+00  0.176697D-02 -0.508788D-02  0.000000D+00 -0.657033D-03
     23  0.000000D+00 -0.620352D-02 -0.146842D-02  0.000000D+00 -0.473029D-03
     24 -0.385205D-02  0.000000D+00  0.000000D+00  0.577952D-02  0.000000D+00
               11            12            13            14            15 
     11  0.179850D+00
     12  0.000000D+00  0.964957D-02
     13 -0.268124D-01  0.000000D+00  0.635016D-01
     14 -0.789695D-02  0.000000D+00 -0.394686D-01  0.453069D+00
     15  0.000000D+00 -0.965088D-03  0.000000D+00  0.000000D+00  0.987450D-02
     16  0.620352D-02  0.000000D+00  0.218857D-02 -0.494609D-02  0.000000D+00
     17 -0.146842D-02  0.000000D+00 -0.392564D-03  0.795157D-03  0.000000D+00
     18  0.000000D+00  0.577952D-02  0.000000D+00  0.000000D+00 -0.346580D-02
     19  0.280866D-03  0.000000D+00 -0.157832D-02  0.628154D-03  0.000000D+00
     20 -0.475487D-03  0.000000D+00 -0.628154D-03  0.582986D-03  0.000000D+00
     21  0.000000D+00 -0.582947D-03  0.000000D+00  0.000000D+00 -0.334394D-04
     22  0.473029D-03  0.000000D+00 -0.941529D-04  0.178138D-03  0.000000D+00
     23  0.823124D-03  0.000000D+00 -0.280866D-03 -0.475487D-03  0.000000D+00
     24  0.000000D+00  0.319204D-02  0.000000D+00  0.000000D+00 -0.582947D-03
               16            17            18            19            20 
     16  0.901166D+00
     17  0.265534D-01  0.842868D+00
     18  0.000000D+00  0.000000D+00  0.441112D-01
     19 -0.725091D-01 -0.321506D-01  0.000000D+00  0.635016D-01
     20 -0.306728D-01 -0.438563D+00  0.000000D+00  0.394686D-01  0.453069D+00
     21  0.000000D+00  0.000000D+00 -0.137612D-01  0.000000D+00  0.000000D+00
     22 -0.333401D+00  0.177141D+00  0.000000D+00  0.100331D-01 -0.585704D-02
     23  0.181388D+00 -0.185897D+00  0.000000D+00  0.268124D-01 -0.789695D-02
     24  0.000000D+00  0.000000D+00 -0.689152D-02  0.000000D+00  0.000000D+00
               21            22            23            24 
     21  0.987450D-02
     22  0.000000D+00  0.346264D+00
     23  0.000000D+00 -0.183697D+00  0.179850D+00
     24 -0.965088D-03  0.000000D+00  0.000000D+00  0.964957D-02
 Force constants in internal coordinates: 
                1             2             3             4             5 
      1  0.371878D+00
      2  0.520170D-02  0.616572D+00
      3  0.520170D-02  0.492740D-01  0.616572D+00
      4  0.488392D-03  0.405341D-02 -0.552933D-02  0.464715D+00
      5 -0.164054D-02  0.732446D-02 -0.323337D-02 -0.129485D-02  0.457022D+00
      6 -0.164054D-02 -0.323337D-02  0.732446D-02  0.396936D-03  0.723666D-03
      7  0.488392D-03 -0.552933D-02  0.405341D-02  0.275186D-03  0.396936D-03
      8  0.367439D-02  0.875188D-02 -0.335325D-01 -0.242770D-02  0.389302D-02
      9  0.367439D-02 -0.335325D-01  0.875188D-02  0.606632D-03  0.619393D-03
     10 -0.734878D-02  0.247806D-01  0.247806D-01  0.182107D-02 -0.451242D-02
     11 -0.134936D-02  0.164903D-01  0.377580D-02  0.232948D-02 -0.786569D-02
     12  0.177549D-02  0.699504D-02 -0.143220D-02 -0.682718D-02  0.259556D-02
     13 -0.426131D-03 -0.234853D-01 -0.234360D-02  0.449770D-02  0.527013D-02
     14  0.177549D-02 -0.143220D-02  0.699504D-02 -0.225119D-03  0.109160D-02
     15 -0.134936D-02  0.377580D-02  0.164903D-01  0.230847D-03 -0.807011D-03
     16 -0.426131D-03 -0.234360D-02 -0.234853D-01 -0.572772D-05 -0.284585D-03
     17  0.000000D+00  0.000000D+00  0.000000D+00  0.000000D+00  0.000000D+00
     18  0.000000D+00  0.000000D+00  0.000000D+00  0.000000D+00  0.000000D+00
     19  0.000000D+00  0.000000D+00  0.000000D+00  0.000000D+00  0.000000D+00
     20  0.000000D+00  0.000000D+00  0.000000D+00  0.000000D+00  0.000000D+00
     21  0.000000D+00  0.000000D+00  0.000000D+00  0.000000D+00  0.000000D+00
     22  0.000000D+00  0.000000D+00  0.000000D+00  0.000000D+00  0.000000D+00
     23  0.000000D+00  0.000000D+00  0.000000D+00  0.000000D+00  0.000000D+00
     24  0.000000D+00  0.000000D+00  0.000000D+00  0.000000D+00  0.000000D+00
                6             7             8             9            10 
      6  0.457022D+00
      7 -0.129485D-02  0.464715D+00
      8  0.619392D-03  0.606632D-03  0.107530D+00
      9  0.389302D-02 -0.242770D-02 -0.350925D-01  0.107530D+00
     10 -0.451242D-02  0.182107D-02 -0.724379D-01 -0.724379D-01  0.144876D+00
     11 -0.807011D-03  0.230847D-03 -0.745206D-02 -0.394262D-02  0.113947D-01
     12  0.109160D-02 -0.225119D-03  0.874017D-02 -0.250912D-03 -0.848926D-02
     13 -0.284585D-03 -0.572776D-05 -0.128811D-02  0.419353D-02 -0.290542D-02
     14  0.259556D-02 -0.682718D-02 -0.250912D-03  0.874017D-02 -0.848926D-02
     15 -0.786569D-02  0.232948D-02 -0.394262D-02 -0.745206D-02  0.113947D-01
     16  0.527013D-02  0.449770D-02  0.419353D-02 -0.128811D-02 -0.290542D-02
     17  0.000000D+00  0.000000D+00  0.000000D+00  0.000000D+00  0.000000D+00
     18  0.000000D+00  0.000000D+00  0.000000D+00  0.000000D+00  0.000000D+00
     19  0.000000D+00  0.000000D+00  0.000000D+00  0.000000D+00  0.000000D+00
     20  0.000000D+00  0.000000D+00  0.000000D+00  0.000000D+00  0.000000D+00
     21  0.000000D+00  0.000000D+00  0.000000D+00  0.000000D+00  0.000000D+00
     22  0.000000D+00  0.000000D+00  0.000000D+00  0.000000D+00  0.000000D+00
     23  0.000000D+00  0.000000D+00  0.000000D+00  0.000000D+00  0.000000D+00
     24  0.000000D+00  0.000000D+00  0.000000D+00  0.000000D+00  0.000000D+00
               11            12            13            14            15 
     11  0.830668D-01
     12 -0.444751D-01  0.811843D-01
     13 -0.385918D-01 -0.367092D-01  0.753010D-01
     14 -0.151133D-02  0.232760D-02 -0.816267D-03  0.811843D-01
     15  0.203438D-02 -0.151133D-02 -0.523050D-03 -0.444751D-01  0.830668D-01
     16 -0.523050D-03 -0.816267D-03  0.133932D-02 -0.367092D-01 -0.385918D-01
     17  0.000000D+00  0.000000D+00  0.000000D+00  0.000000D+00  0.000000D+00
     18  0.000000D+00  0.000000D+00  0.000000D+00  0.000000D+00  0.000000D+00
     19  0.000000D+00  0.000000D+00  0.000000D+00  0.000000D+00  0.000000D+00
     20  0.000000D+00  0.000000D+00  0.000000D+00  0.000000D+00  0.000000D+00
     21  0.000000D+00  0.000000D+00  0.000000D+00  0.000000D+00  0.000000D+00
     22  0.000000D+00  0.000000D+00  0.000000D+00  0.000000D+00  0.000000D+00
     23  0.000000D+00  0.000000D+00  0.000000D+00  0.000000D+00  0.000000D+00
     24  0.000000D+00  0.000000D+00  0.000000D+00  0.000000D+00  0.000000D+00
               16            17            18            19            20 
     16  0.753010D-01
     17  0.000000D+00  0.100804D-01
     18  0.000000D+00  0.426712D-02  0.136824D-01
     19  0.000000D+00  0.398323D-02 -0.581062D-02  0.161114D-01
     20  0.000000D+00 -0.183006D-02  0.360463D-02  0.631753D-02  0.117522D-01
     21  0.000000D+00 -0.392039D-02 -0.550041D-02  0.615736D-02  0.457734D-02
     22  0.000000D+00 -0.373277D-02 -0.392039D-02  0.236441D-02  0.217679D-02
     23  0.000000D+00  0.217679D-02  0.457734D-02 -0.597080D-02 -0.357025D-02
     24  0.000000D+00  0.236441D-02  0.615736D-02 -0.976374D-02 -0.597080D-02
               21            22            23            24 
     21  0.136824D-01
     22  0.426712D-02  0.100804D-01
     23  0.360463D-02 -0.183006D-02  0.117522D-01
     24 -0.581062D-02  0.398323D-02  0.631753D-02  0.161114D-01
 Leave Link  716 at Thu Feb 26 00:35:33 2015, MaxMem= 1073741824 cpu:       0.7
 (Enter /apps/gaussian/g09_c01/g09/l103.exe)

 GradGradGradGradGradGradGradGradGradGradGradGradGradGradGradGradGradGrad
 Berny optimization.
 Red2BG is reusing G-inverse.
 Internal  Forces:  Max     0.008630828 RMS     0.003729900
 Search for a local minimum.
 Step number   1 out of a maximum of   34
 All quantities printed in internal units (Hartrees-Bohrs-Radians)
 RMS Force = .37299D-02 SwitMx=.10000D-02 MixMth= 1
 Mixed Optimization -- RFO/linear search
 Second derivative matrix not updated -- analytic derivatives used.
 ITU=  0
     Eigenvalues ---    0.01257   0.01364   0.01649   0.02014   0.04041
     Eigenvalues ---    0.10790   0.11282   0.11959   0.12372   0.14274
     Eigenvalues ---    0.21817   0.37239   0.45499   0.45825   0.46469
     Eigenvalues ---    0.46544   0.57461   0.67224
 RFO step:  Lambda=-6.70025446D-04 EMin= 1.25685777D-02
 Linear search not attempted -- first point.
 Iteration  1 RMS(Cart)=  0.00965750 RMS(Int)=  0.00001464
 Iteration  2 RMS(Cart)=  0.00002067 RMS(Int)=  0.00000000
 Iteration  3 RMS(Cart)=  0.00000000 RMS(Int)=  0.00000000
 ClnCor:  largest displacement from symmetrization is 7.45D-11 for atom     8.
 Variable       Old X    -DE/DX   Delta X   Delta X   Delta X     New X
                                 (Linear)    (Quad)   (Total)
    R1        2.05337   0.00822   0.00000   0.02163   0.02163   2.07500
    R2        2.48365   0.00863   0.00000   0.01333   0.01333   2.49698
    R3        2.48365   0.00863   0.00000   0.01333   0.01333   2.49698
    R4        1.91586   0.00532   0.00000   0.01143   0.01143   1.92729
    R5        1.91959   0.00546   0.00000   0.01169   0.01169   1.93127
    R6        1.91959   0.00546   0.00000   0.01169   0.01169   1.93127
    R7        1.91586   0.00532   0.00000   0.01143   0.01143   1.92729
    A1        2.04681   0.00026   0.00000   0.00193   0.00193   2.04874
    A2        2.04681   0.00026   0.00000   0.00193   0.00193   2.04874
    A3        2.18957  -0.00052   0.00000  -0.00387  -0.00387   2.18570
    A4        2.09627  -0.00047   0.00000  -0.00466  -0.00466   2.09161
    A5        2.15059   0.00000   0.00000  -0.00132  -0.00132   2.14927
    A6        2.03632   0.00047   0.00000   0.00598   0.00598   2.04230
    A7        2.15059   0.00000   0.00000  -0.00132  -0.00132   2.14927
    A8        2.09627  -0.00047   0.00000  -0.00466  -0.00466   2.09161
    A9        2.03632   0.00047   0.00000   0.00598   0.00598   2.04230
    D1        0.00000   0.00000   0.00000   0.00000   0.00000   0.00000
    D2        3.14159   0.00000   0.00000   0.00000   0.00000   3.14159
    D3        3.14159   0.00000   0.00000   0.00000   0.00000   3.14159
    D4        0.00000   0.00000   0.00000   0.00000   0.00000   0.00000
    D5        3.14159   0.00000   0.00000   0.00000   0.00000   3.14159
    D6        0.00000   0.00000   0.00000   0.00000   0.00000   0.00000
    D7        0.00000   0.00000   0.00000   0.00000   0.00000   0.00000
    D8        3.14159   0.00000   0.00000   0.00000   0.00000   3.14159
         Item               Value     Threshold  Converged?
 Maximum Force            0.008631     0.000002     NO 
 RMS     Force            0.003730     0.000001     NO 
 Maximum Displacement     0.027148     0.000006     NO 
 RMS     Displacement     0.009652     0.000004     NO 
 Predicted change in Energy=-3.355157D-04
 GradGradGradGradGradGradGradGradGradGradGradGradGradGradGradGradGradGrad

 Leave Link  103 at Thu Feb 26 00:35:33 2015, MaxMem= 1073741824 cpu:       0.2
 (Enter /apps/gaussian/g09_c01/g09/l202.exe)
                          Input orientation:                          
 ---------------------------------------------------------------------
 Center     Atomic      Atomic             Coordinates (Angstroms)
 Number     Number       Type             X           Y           Z
 ---------------------------------------------------------------------
      1          6           0        0.000000    0.430189    0.000000
      2          1           0        0.000000    1.528230    0.000000
      3          7           0        1.173279   -0.177574    0.000000
      4          1           0        2.030794    0.374528    0.000000
      5          1           0        1.275846   -1.194400    0.000000
      6          7           0       -1.173279   -0.177574    0.000000
      7          1           0       -1.275846   -1.194400    0.000000
      8          1           0       -2.030794    0.374528    0.000000
 ---------------------------------------------------------------------
                    Distance matrix (angstroms):
                    1          2          3          4          5
     1  C    0.000000
     2  H    1.098042   0.000000
     3  N    1.321347   2.070351   0.000000
     4  H    2.031556   2.335626   1.019877   0.000000
     5  H    2.065689   3.006742   1.021986   1.741115   0.000000
     6  N    1.321347   2.070351   2.346558   3.251292   2.651819
     7  H    2.065689   3.006742   2.651819   3.659972   2.551691
     8  H    2.031556   2.335626   3.251292   4.061587   3.659972
                    6          7          8
     6  N    0.000000
     7  H    1.021986   0.000000
     8  H    1.019877   1.741115   0.000000
 Stoichiometry    CH5N2(1+)
 Framework group  C2V[C2(CH),SGV(H4N2)]
 Deg. of freedom     7
 Full point group                 C2V     NOp   4
 RotChk:  IX=0 Diff= 4.71D-16
 Largest Abelian subgroup         C2V     NOp   4
 Largest concise Abelian subgroup C2      NOp   2
                         Standard orientation:                         
 ---------------------------------------------------------------------
 Center     Atomic      Atomic             Coordinates (Angstroms)
 Number     Number       Type             X           Y           Z
 ---------------------------------------------------------------------
      1          6           0        0.000000    0.000000    0.430845
      2          1           0        0.000000    0.000000    1.528887
      3          7           0        0.000000    1.173279   -0.176917
      4          1           0        0.000000    2.030794    0.375185
      5          1           0        0.000000    1.275846   -1.193743
      6          7           0        0.000000   -1.173279   -0.176917
      7          1           0        0.000000   -1.275846   -1.193743
      8          1           0        0.000000   -2.030794    0.375185
 ---------------------------------------------------------------------
 Rotational constants (GHZ):     58.6576926     10.0780272      8.6003874
 Leave Link  202 at Thu Feb 26 00:35:33 2015, MaxMem= 1073741824 cpu:       0.0
 (Enter /apps/gaussian/g09_c01/g09/l301.exe)
 Standard basis: Aug-CC-pVDZ (5D, 7F)
 Ernie: Thresh=  0.10000D-02 Tol=  0.10000D-05 Strict=F.
 Ernie:  6 primitive shells out of 110 were deleted.
 There are    46 symmetry adapted basis functions of A1  symmetry.
 There are    13 symmetry adapted basis functions of A2  symmetry.
 There are    18 symmetry adapted basis functions of B1  symmetry.
 There are    37 symmetry adapted basis functions of B2  symmetry.
 Integral buffers will be    131072 words long.
 Raffenetti 2 integral format.
 Two-electron integral symmetry is turned on.
   114 basis functions,   184 primitive gaussians,   120 cartesian basis functions
    12 alpha electrons       12 beta electrons
       nuclear repulsion energy        78.9858418184 Hartrees.
 IExCor= 1009 DFT=T Ex=PBE Corr=PBE ExCW=0 ScaHFX=  0.000000
 ScaDFX=  1.000000  1.000000  1.000000  1.000000 ScalE2=  1.000000  1.000000
 IRadAn=      5 IRanWt=     -1 IRanGd=            0 ICorTp=0
 NAtoms=    8 NActive=    8 NUniq=    5 SFac= 2.56D+00 NAtFMM=   60 NAOKFM=F Big=F
 Leave Link  301 at Thu Feb 26 00:35:33 2015, MaxMem= 1073741824 cpu:       0.3
 (Enter /apps/gaussian/g09_c01/g09/l302.exe)
 NPDir=0 NMtPBC=     1 NCelOv=     1 NCel=       1 NClECP=     1 NCelD=      1
         NCelK=      1 NCelE2=     1 NClLst=     1 CellRange=     0.0.
 One-electron integrals computed using PRISM.
 One-electron integral symmetry used in STVInt
 NBasis=   114 RedAO= T  NBF=    46    13    18    37
 NBsUse=   114 1.00D-06 NBFU=    46    13    18    37
 Precomputing XC quadrature grid using
 IXCGrd= 2 IRadAn=           5 IRanWt=          -1 IRanGd=           0 AccXCQ= 0.00D+00.
 NRdTot=     686 NPtTot=      183350 NUsed=      188269 NTot=      188301
 NSgBfM=   120   120   120   120   120 NAtAll=     8     8.
 Leave Link  302 at Thu Feb 26 00:35:33 2015, MaxMem= 1073741824 cpu:       1.1
 (Enter /apps/gaussian/g09_c01/g09/l303.exe)
 DipDrv:  MaxL=1.
 Leave Link  303 at Thu Feb 26 00:35:33 2015, MaxMem= 1073741824 cpu:       0.2
 (Enter /apps/gaussian/g09_c01/g09/l401.exe)
 Initial guess read from the read-write file.
 B after Tr=     0.000000    0.000000    0.000000
         Rot=    1.000000    0.000000    0.000000    0.000000 Ang=   0.00 deg.
 Guess basis will be translated and rotated to current coordinates.
 Initial guess orbital symmetries:
       Occupied  (B2) (A1) (A1) (A1) (B2) (A1) (A1) (B2) (B2) (A1)
                 (B1) (A2)
       Virtual   (B1) (A1) (A1) (B2) (B2) (A1) (B1) (A1) (B2) (A1)
                 (A2) (A1) (B1) (B2) (A1) (A1) (B2) (B2) (A1) (B1)
                 (B2) (A1) (A2) (B2) (A1) (B1) (A1) (B2) (B2) (A1)
                 (A2) (B1) (A1) (A1) (A1) (B2) (A2) (B1) (A1) (B2)
                 (A1) (B2) (B2) (A1) (B1) (B2) (A1) (B2) (A2) (B2)
                 (B1) (A1) (A1) (A2) (B2) (B1) (A1) (A1) (B2) (A2)
                 (A1) (B1) (B2) (A1) (B1) (B2) (A1) (A2) (B2) (A1)
                 (B1) (A2) (B1) (A1) (B2) (A2) (B2) (A1) (A1) (B1)
                 (B2) (A1) (B2) (A1) (B2) (B2) (A1) (A1) (B1) (A2)
                 (B2) (B1) (A1) (A2) (B2) (A1) (B2) (A1) (B2) (A1)
                 (B2) (A1)
 The electronic state of the initial guess is 1-A1.
 Generating alternative initial guess.
 Harris functional with IExCor= 1009 diagonalized for initial guess.
 ExpMin= 2.97D-02 ExpMax= 9.05D+03 ExpMxC= 3.09D+02 IAcc=3 IRadAn=         5 AccDes= 0.00D+00
 HarFok:  IExCor= 1009 AccDes= 0.00D+00 IRadAn=         5 IDoV= 1
 ScaDFX=  1.000000  1.000000  1.000000  1.000000
 FoFCou: FMM=F IPFlag=           0 FMFlag=      100000 FMFlg1=           0
         NFxFlg=           0 DoJE=T BraDBF=F KetDBF=T FulRan=T
         Omega=  0.000000  0.000000  1.000000  0.000000  0.000000 ICntrl=     500 IOpCl=  0
         NMat0=    1 NMatS0=    1 NMatT0=    0 NMatD0=    1 NMtDS0=    0 NMtDT0=    0
         I1Cent=           4 NGrid=           0.
 Petite list used in FoFCou.
 Harris En= -150.294935615607    
 Leave Link  401 at Thu Feb 26 00:35:33 2015, MaxMem= 1073741824 cpu:       2.3
 (Enter /apps/gaussian/g09_c01/g09/l502.exe)
 Closed shell SCF:
 Requested convergence on RMS density matrix=1.00D-08 within 128 cycles.
 Requested convergence on MAX density matrix=1.00D-06.
 Requested convergence on             energy=1.00D-06.
 No special actions if energy rises.
 Using DIIS extrapolation, IDIIS=  1040.
 Integral symmetry usage will be decided dynamically.
       188184 words used for storage of precomputed grid.
 Keep J ints in memory in canonical form, NReq=27554120.
 IEnd=      251662 IEndB=      251662 NGot=  1073741824 MDV=  1047163865
 LenX=  1047163865 LenY=  1047149024
 Symmetry not used in FoFDir.
 MinBra= 0 MaxBra= 2 Meth= 1.
 IRaf=       0 NMat=   1 IRICut=       1 DoRegI=T DoRafI=F ISym2E= 0 JSym2E=0.

 Cycle   1  Pass 1  IDiag  1:
 E= -150.223388592691    
 DIIS: error= 7.65D-04 at cycle   1 NSaved=   1.
 NSaved= 1 IEnMin= 1 EnMin= -150.223388592691     IErMin= 1 ErrMin= 7.65D-04
 ErrMax= 7.65D-04 EMaxC= 1.00D-01 BMatC= 1.01D-04 BMatP= 1.01D-04
 IDIUse=3 WtCom= 9.92D-01 WtEn= 7.65D-03
 Coeff-Com:  0.100D+01
 Coeff-En:   0.100D+01
 Coeff:      0.100D+01
 Gap=     0.203 Goal=   None    Shift=    0.000
 RMSDP=5.91D-04 MaxDP=1.57D-02              OVMax= 3.36D-03

 Cycle   2  Pass 1  IDiag  1:
 E= -150.223475895304     Delta-E=       -0.000087302613 Rises=F Damp=F
 DIIS: error= 1.76D-04 at cycle   2 NSaved=   2.
 NSaved= 2 IEnMin= 2 EnMin= -150.223475895304     IErMin= 2 ErrMin= 1.76D-04
 ErrMax= 1.76D-04 EMaxC= 1.00D-01 BMatC= 4.05D-06 BMatP= 1.01D-04
 IDIUse=3 WtCom= 9.98D-01 WtEn= 1.76D-03
 Coeff-Com:  0.868D-01 0.913D+00
 Coeff-En:   0.000D+00 0.100D+01
 Coeff:      0.866D-01 0.913D+00
 Gap=     0.202 Goal=   None    Shift=    0.000
 RMSDP=4.49D-05 MaxDP=1.43D-03 DE=-8.73D-05 OVMax= 2.37D-03

 Cycle   3  Pass 1  IDiag  1:
 E= -150.223471249165     Delta-E=        0.000004646140 Rises=F Damp=F
 DIIS: error= 3.01D-04 at cycle   3 NSaved=   3.
 NSaved= 3 IEnMin= 2 EnMin= -150.223475895304     IErMin= 2 ErrMin= 1.76D-04
 ErrMax= 3.01D-04 EMaxC= 1.00D-01 BMatC= 9.63D-06 BMatP= 4.05D-06
 IDIUse=3 WtCom= 3.66D-01 WtEn= 6.34D-01
 Coeff-Com:  0.283D-01 0.606D+00 0.366D+00
 Coeff-En:   0.000D+00 0.656D+00 0.344D+00
 Coeff:      0.103D-01 0.638D+00 0.352D+00
 Gap=     0.203 Goal=   None    Shift=    0.000
 RMSDP=1.87D-05 MaxDP=7.67D-04 DE= 4.65D-06 OVMax= 1.40D-03

 Cycle   4  Pass 1  IDiag  1:
 E= -150.223479994582     Delta-E=       -0.000008745417 Rises=F Damp=F
 DIIS: error= 1.94D-05 at cycle   4 NSaved=   4.
 NSaved= 4 IEnMin= 4 EnMin= -150.223479994582     IErMin= 4 ErrMin= 1.94D-05
 ErrMax= 1.94D-05 EMaxC= 1.00D-01 BMatC= 3.31D-08 BMatP= 4.05D-06
 IDIUse=1 WtCom= 1.00D+00 WtEn= 0.00D+00
 Coeff-Com:  0.195D-02 0.139D+00 0.632D-01 0.796D+00
 Coeff:      0.195D-02 0.139D+00 0.632D-01 0.796D+00
 Gap=     0.203 Goal=   None    Shift=    0.000
 RMSDP=3.28D-06 MaxDP=1.03D-04 DE=-8.75D-06 OVMax= 1.09D-04

 Cycle   5  Pass 1  IDiag  1:
 E= -150.223480033934     Delta-E=       -0.000000039352 Rises=F Damp=F
 DIIS: error= 5.35D-06 at cycle   5 NSaved=   5.
 NSaved= 5 IEnMin= 5 EnMin= -150.223480033934     IErMin= 5 ErrMin= 5.35D-06
 ErrMax= 5.35D-06 EMaxC= 1.00D-01 BMatC= 3.37D-09 BMatP= 3.31D-08
 IDIUse=1 WtCom= 1.00D+00 WtEn= 0.00D+00
 Coeff-Com:  0.132D-03 0.401D-01 0.184D-01 0.325D+00 0.616D+00
 Coeff:      0.132D-03 0.401D-01 0.184D-01 0.325D+00 0.616D+00
 Gap=     0.203 Goal=   None    Shift=    0.000
 RMSDP=5.94D-07 MaxDP=1.38D-05 DE=-3.94D-08 OVMax= 2.16D-05

 Cycle   6  Pass 1  IDiag  1:
 E= -150.223480037703     Delta-E=       -0.000000003769 Rises=F Damp=F
 DIIS: error= 1.06D-06 at cycle   6 NSaved=   6.
 NSaved= 6 IEnMin= 6 EnMin= -150.223480037703     IErMin= 6 ErrMin= 1.06D-06
 ErrMax= 1.06D-06 EMaxC= 1.00D-01 BMatC= 1.53D-10 BMatP= 3.37D-09
 IDIUse=1 WtCom= 1.00D+00 WtEn= 0.00D+00
 Coeff-Com:  0.416D-05 0.153D-01 0.722D-02 0.129D+00 0.280D+00 0.569D+00
 Coeff:      0.416D-05 0.153D-01 0.722D-02 0.129D+00 0.280D+00 0.569D+00
 Gap=     0.203 Goal=   None    Shift=    0.000
 RMSDP=1.15D-07 MaxDP=3.20D-06 DE=-3.77D-09 OVMax= 4.11D-06

 Cycle   7  Pass 1  IDiag  1:
 E= -150.223480037839     Delta-E=       -0.000000000135 Rises=F Damp=F
 DIIS: error= 3.22D-07 at cycle   7 NSaved=   7.
 NSaved= 7 IEnMin= 7 EnMin= -150.223480037839     IErMin= 7 ErrMin= 3.22D-07
 ErrMax= 3.22D-07 EMaxC= 1.00D-01 BMatC= 1.11D-11 BMatP= 1.53D-10
 IDIUse=1 WtCom= 1.00D+00 WtEn= 0.00D+00
 Coeff-Com:  0.108D-05 0.452D-02 0.217D-02 0.399D-01 0.912D-01 0.281D+00
 Coeff-Com:  0.581D+00
 Coeff:      0.108D-05 0.452D-02 0.217D-02 0.399D-01 0.912D-01 0.281D+00
 Coeff:      0.581D+00
 Gap=     0.203 Goal=   None    Shift=    0.000
 RMSDP=2.75D-08 MaxDP=6.14D-07 DE=-1.35D-10 OVMax= 9.44D-07

 Cycle   8  Pass 1  IDiag  1:
 E= -150.223480037852     Delta-E=       -0.000000000013 Rises=F Damp=F
 DIIS: error= 2.26D-08 at cycle   8 NSaved=   8.
 NSaved= 8 IEnMin= 8 EnMin= -150.223480037852     IErMin= 8 ErrMin= 2.26D-08
 ErrMax= 2.26D-08 EMaxC= 1.00D-01 BMatC= 5.71D-14 BMatP= 1.11D-11
 IDIUse=1 WtCom= 1.00D+00 WtEn= 0.00D+00
 Coeff-Com: -0.404D-06 0.455D-04-0.186D-04 0.630D-03 0.146D-02 0.186D-01
 Coeff-Com:  0.796D-01 0.900D+00
 Coeff:     -0.404D-06 0.455D-04-0.186D-04 0.630D-03 0.146D-02 0.186D-01
 Coeff:      0.796D-01 0.900D+00
 Gap=     0.203 Goal=   None    Shift=    0.000
 RMSDP=2.84D-09 MaxDP=5.53D-08 DE=-1.30D-11 OVMax= 1.08D-07

 SCF Done:  E(RPBE-PBE) =  -150.223480038     A.U. after    8 cycles
             Convg  =    0.2841D-08             -V/T =  2.0067
 KE= 1.492180622697D+02 PE=-5.015638202852D+02 EE= 1.231364361592D+02
 Leave Link  502 at Thu Feb 26 00:35:35 2015, MaxMem= 1073741824 cpu:      12.8
 (Enter /apps/gaussian/g09_c01/g09/l801.exe)
 Range of M.O.s used for correlation:     1   114
 NBasis=   114 NAE=    12 NBE=    12 NFC=     0 NFV=     0
 NROrb=    114 NOA=    12 NOB=    12 NVA=   102 NVB=   102

 **** Warning!!: The largest alpha MO coefficient is  0.22275472D+02

 Leave Link  801 at Thu Feb 26 00:35:35 2015, MaxMem= 1073741824 cpu:       0.1
 (Enter /apps/gaussian/g09_c01/g09/l1002.exe)
 Minotr:  Closed shell wavefunction.
          Direct CPHF calculation.
          Differentiating once with respect to electric field.
                with respect to dipole field.
          Electric field/nuclear overlap derivatives assumed to be zero.
          Using symmetry in CPHF.
          Requested convergence is 1.0D-08 RMS, and 1.0D-07 maximum.
          Secondary convergence is 1.0D-12 RMS, and 1.0D-12 maximum.
          NewPWx=F KeepS1=T KeepF1=T KeepIn=T MapXYZ=F SortEE=F KeepMc=T.
          MDV=    1073741756 using IRadAn=       1.
 Generate precomputed XC quadrature information.
          Keep J ints in memory in canonical form, NReq=27181278.
 Symmetry not used in FoFDir.
 MinBra= 0 MaxBra= 2 Meth= 1.
 IRaf=       0 NMat=   1 IRICut=       1 DoRegI=T DoRafI=F ISym2E= 0 JSym2E=0.
          Solving linear equations simultaneously, MaxMat=       0.
          There are     3 degrees of freedom in the 1st order CPHF.  IDoFFX=0.
      3 vectors produced by pass  0 Test12= 4.08D-14 3.33D-08 XBig12= 6.36D+01 7.11D+00.
 AX will form     3 AO Fock derivatives at one time.
      3 vectors produced by pass  1 Test12= 4.08D-14 3.33D-08 XBig12= 3.88D+01 2.06D+00.
      3 vectors produced by pass  2 Test12= 4.08D-14 3.33D-08 XBig12= 3.24D+00 4.47D-01.
      3 vectors produced by pass  3 Test12= 4.08D-14 3.33D-08 XBig12= 8.86D-02 6.63D-02.
      3 vectors produced by pass  4 Test12= 4.08D-14 3.33D-08 XBig12= 1.16D-02 2.93D-02.
      3 vectors produced by pass  5 Test12= 4.08D-14 3.33D-08 XBig12= 2.03D-03 1.06D-02.
      3 vectors produced by pass  6 Test12= 4.08D-14 3.33D-08 XBig12= 4.72D-05 2.17D-03.
      2 vectors produced by pass  7 Test12= 4.08D-14 3.33D-08 XBig12= 5.34D-07 1.75D-04.
      2 vectors produced by pass  8 Test12= 4.08D-14 3.33D-08 XBig12= 1.05D-09 7.25D-06.
      2 vectors produced by pass  9 Test12= 4.08D-14 3.33D-08 XBig12= 2.26D-11 1.28D-06.
      1 vectors produced by pass 10 Test12= 4.08D-14 3.33D-08 XBig12= 3.34D-13 1.08D-07.
 Inverted reduced A of dimension    28 with in-core refinement.
 End of Minotr Frequency-dependent properties file   721 does not exist.
 End of Minotr Frequency-dependent properties file   722 does not exist.
 Leave Link 1002 at Thu Feb 26 00:35:41 2015, MaxMem= 1073741824 cpu:      47.1
 (Enter /apps/gaussian/g09_c01/g09/l1101.exe)
 Using compressed storage, NAtomX=     8.
 Will process   9 centers per pass.
 Leave Link 1101 at Thu Feb 26 00:35:41 2015, MaxMem= 1073741824 cpu:       1.0
 (Enter /apps/gaussian/g09_c01/g09/l1102.exe)
 Symmetrizing basis deriv contribution to polar:
 IMax=3 JMax=2 DiffMx= 0.00D+00
 Leave Link 1102 at Thu Feb 26 00:35:41 2015, MaxMem= 1073741824 cpu:       0.2
 (Enter /apps/gaussian/g09_c01/g09/l1110.exe)
 Forming Gx(P) for the SCF density, NAtomX=     8.
 Integral derivatives from FoFDir/FoFCou, PRISM(SPDF).
 Do as many integral derivatives as possible in FoFDir.
 G2DrvN: MDV=    1073741656.
 G2DrvN: will do     9 centers at a time, making    1 passes doing MaxLOS=2.
 Calling FoFCou, ICntrl=  3507 FMM=F I1Cent=   0 AccDes= 0.00D+00.
 FoFCou: FMM=F IPFlag=           0 FMFlag=      100000 FMFlg1=           0
         NFxFlg=           0 DoJE=F BraDBF=F KetDBF=F FulRan=T
         Omega=  0.000000  0.000000  1.000000  0.000000  0.000000 ICntrl=    3507 IOpCl=  0
         NMat0=    1 NMatS0=    1 NMatT0=    0 NMatD0=    4 NMtDS0=    3 NMtDT0=    0
         I1Cent=           0 NGrid=           0.
 Petite list used in FoFCou.
 FoFDir/FoFCou used for L=0 through L=2.
 End of G2Drv Frequency-dependent properties file   721 does not exist.
 End of G2Drv Frequency-dependent properties file   722 does not exist.
 Leave Link 1110 at Thu Feb 26 00:35:46 2015, MaxMem= 1073741824 cpu:      40.7
 (Enter /apps/gaussian/g09_c01/g09/l1002.exe)
 Minotr:  Closed shell wavefunction.
          IDoAtm=11111111
          Direct CPHF calculation.
          Differentiating once with respect to electric field.
                with respect to dipole field.
          Differentiating once with respect to nuclear coordinates.
          Using symmetry in CPHF.
          Requested convergence is 1.0D-08 RMS, and 1.0D-07 maximum.
          Secondary convergence is 1.0D-12 RMS, and 1.0D-12 maximum.
          NewPWx=T KeepS1=F KeepF1=F KeepIn=T MapXYZ=F SortEE=F KeepMc=T.
          MDV=    1073741740 using IRadAn=       1.
 Generate precomputed XC quadrature information.
          Keep J ints in memory in canonical form, NReq=27181446.
 Symmetry not used in FoFDir.
 MinBra= 0 MaxBra= 2 Meth= 1.
 IRaf=       0 NMat=   1 IRICut=       1 DoRegI=T DoRafI=F ISym2E= 0 JSym2E=0.
          Solving linear equations simultaneously, MaxMat=       0.
          There are    18 degrees of freedom in the 1st order CPHF.  IDoFFX=4.
 Will reuse    3 saved solutions.
     15 vectors produced by pass  0 Test12= 6.80D-15 5.56D-09 XBig12= 1.92D-01 1.75D-01.
 AX will form    15 AO Fock derivatives at one time.
     15 vectors produced by pass  1 Test12= 6.80D-15 5.56D-09 XBig12= 4.44D-02 1.29D-01.
     15 vectors produced by pass  2 Test12= 6.80D-15 5.56D-09 XBig12= 6.29D-04 5.14D-03.
     15 vectors produced by pass  3 Test12= 6.80D-15 5.56D-09 XBig12= 2.59D-06 2.61D-04.
     15 vectors produced by pass  4 Test12= 6.80D-15 5.56D-09 XBig12= 3.64D-09 1.02D-05.
      7 vectors produced by pass  5 Test12= 6.80D-15 5.56D-09 XBig12= 1.07D-12 2.53D-07.
 Inverted reduced A of dimension    82 with in-core refinement.
 FullF1:  Do perturbations    1 to    18.
 Isotropic polarizability for W=    0.000000       27.80 Bohr**3.
 FullF1:  Do perturbations    1 to     6.
 End of Minotr Frequency-dependent properties file   721 does not exist.
 End of Minotr Frequency-dependent properties file   722 does not exist.
 Leave Link 1002 at Thu Feb 26 00:35:56 2015, MaxMem= 1073741824 cpu:      80.5
 (Enter /apps/gaussian/g09_c01/g09/l701.exe)
 Compute integral second derivatives.
 ... and contract with generalized density number  0.
 Leave Link  701 at Thu Feb 26 00:35:56 2015, MaxMem= 1073741824 cpu:       1.2
 (Enter /apps/gaussian/g09_c01/g09/l702.exe)
 L702 exits ... SP integral derivatives will be done elsewhere.
 Leave Link  702 at Thu Feb 26 00:35:56 2015, MaxMem= 1073741824 cpu:       0.1
 (Enter /apps/gaussian/g09_c01/g09/l703.exe)
 Compute integral second derivatives, UseDBF=F ICtDFT=           0.
 Integral derivatives from FoFDir, PRISM(SPDF).
 Calling FoFJK, ICntrl=    100527 FMM=F ISym2X=1 I1Cent= 0 IOpClX= 0 NMat=1 NMatS=1 NMatT=0.
 FoFCou: FMM=F IPFlag=           0 FMFlag=      100000 FMFlg1=         800
         NFxFlg=           0 DoJE=F BraDBF=F KetDBF=F FulRan=T
         Omega=  0.000000  0.000000  1.000000  0.000000  0.000000 ICntrl=  100527 IOpCl=  0
         NMat0=    1 NMatS0=    1 NMatT0=    0 NMatD0=    1 NMtDS0=    0 NMtDT0=    0
         I1Cent=           0 NGrid=           0.
 Petite list used in FoFCou.
 Leave Link  703 at Thu Feb 26 00:36:01 2015, MaxMem= 1073741824 cpu:      34.5
 (Enter /apps/gaussian/g09_c01/g09/l716.exe)
 Dipole        =-4.77508973D-17-4.04468126D-14-1.08066332D-01
 Polarizability= 1.88224009D+01 1.89657550D-12 3.86997345D+01
                -4.90065947D-12-6.15860661D-13 2.58668656D+01
 HyperPolar    = 6.25318706D-10-4.41649306D-11 2.85281327D-11
                -2.85908726D-10-8.12595948D-01 3.56903462D-11
                 2.63337218D+01 1.60564419D-10-2.73627332D-11
                -8.36130609D+00
 ***** Axes restored to original set *****
 -------------------------------------------------------------------
 Center     Atomic                   Forces (Hartrees/Bohr)
 Number     Number              X              Y              Z
 -------------------------------------------------------------------
      1        6           0.000000000   -0.000083962    0.000000000
      2        1           0.000000000    0.000272874    0.000000000
      3        7           0.000074657   -0.000045926    0.000000000
      4        1           0.000088243    0.000065649    0.000000000
      5        1           0.000006488   -0.000114178    0.000000000
      6        7          -0.000074657   -0.000045926    0.000000000
      7        1          -0.000006488   -0.000114178    0.000000000
      8        1          -0.000088243    0.000065649    0.000000000
 -------------------------------------------------------------------
 Cartesian Forces:  Max     0.000272874 RMS     0.000078323
 Force constants in Cartesian coordinates: 
                1             2             3             4             5 
      1  0.907074D+00
      2  0.000000D+00  0.790721D+00
      3  0.000000D+00  0.000000D+00  0.151363D+00
      4 -0.569127D-01  0.000000D+00  0.000000D+00  0.650784D-01
      5  0.000000D+00 -0.334095D+00  0.000000D+00  0.000000D+00  0.348495D+00
      6  0.000000D+00  0.000000D+00 -0.486057D-01  0.000000D+00  0.000000D+00
      7 -0.402770D+00  0.154346D+00  0.000000D+00 -0.125267D-02  0.800801D-03
      8  0.145979D+00 -0.233370D+00  0.000000D+00  0.329597D-01 -0.957406D-02
      9  0.000000D+00  0.000000D+00 -0.459397D-01  0.000000D+00  0.000000D+00
     10 -0.246258D-01 -0.168130D-01  0.000000D+00  0.932939D-03  0.179511D-03
     11  0.159646D-01  0.141978D-01  0.000000D+00  0.122106D-02  0.636482D-03
     12  0.000000D+00  0.000000D+00 -0.640293D-02  0.000000D+00  0.000000D+00
     13  0.231491D-02  0.337568D-01  0.000000D+00 -0.376311D-02  0.963624D-03
     14  0.582580D-02 -0.914062D-02  0.000000D+00  0.115881D-02  0.173769D-02
     15  0.000000D+00  0.000000D+00  0.963792D-03  0.000000D+00  0.000000D+00
     16 -0.402770D+00 -0.154346D+00  0.000000D+00 -0.125267D-02 -0.800800D-03
     17 -0.145979D+00 -0.233370D+00  0.000000D+00 -0.329597D-01 -0.957406D-02
     18  0.000000D+00  0.000000D+00 -0.459397D-01  0.000000D+00  0.000000D+00
     19  0.231491D-02 -0.337568D-01  0.000000D+00 -0.376311D-02 -0.963624D-03
     20 -0.582580D-02 -0.914062D-02  0.000000D+00 -0.115881D-02  0.173769D-02
     21  0.000000D+00  0.000000D+00  0.963792D-03  0.000000D+00  0.000000D+00
     22 -0.246258D-01  0.168130D-01  0.000000D+00  0.932939D-03 -0.179511D-03
     23 -0.159646D-01  0.141978D-01  0.000000D+00 -0.122106D-02  0.636482D-03
     24  0.000000D+00  0.000000D+00 -0.640293D-02  0.000000D+00  0.000000D+00
                6             7             8             9            10 
      6  0.284704D-01
      7  0.000000D+00  0.868624D+00
      8  0.000000D+00 -0.213509D-01  0.818665D+00
      9  0.630729D-02  0.000000D+00  0.000000D+00  0.496419D-01
     10  0.000000D+00 -0.320847D+00 -0.168941D+00  0.000000D+00  0.333654D+00
     11  0.000000D+00 -0.173310D+00 -0.182654D+00  0.000000D+00  0.175327D+00
     12 -0.367354D-02  0.000000D+00  0.000000D+00 -0.875572D-02  0.000000D+00
     13  0.000000D+00 -0.734201D-01  0.291403D-01  0.000000D+00  0.991867D-02
     14  0.000000D+00  0.277400D-01 -0.421837D+00  0.000000D+00  0.582440D-02
     15  0.743391D-02  0.000000D+00  0.000000D+00 -0.153144D-01  0.000000D+00
     16  0.000000D+00 -0.741779D-01 -0.130674D-01  0.000000D+00  0.171828D-02
     17  0.000000D+00  0.130674D-01  0.294991D-01  0.000000D+00  0.508452D-02
     18  0.630729D-02  0.000000D+00  0.000000D+00  0.117742D-01  0.000000D+00
     19  0.000000D+00  0.212529D-02  0.365492D-03  0.000000D+00 -0.938138D-04
     20  0.000000D+00  0.487178D-02  0.750901D-03  0.000000D+00 -0.178497D-03
     21  0.743391D-02  0.000000D+00  0.000000D+00 -0.330153D-02  0.000000D+00
     22  0.000000D+00  0.171828D-02 -0.508452D-02  0.000000D+00 -0.656440D-03
     23  0.000000D+00 -0.616503D-02 -0.148109D-02  0.000000D+00 -0.482219D-03
     24 -0.367354D-02  0.000000D+00  0.000000D+00  0.558792D-02  0.000000D+00
               11            12            13            14            15 
     11  0.176387D+00
     12  0.000000D+00  0.118518D-01
     13 -0.261297D-01  0.000000D+00  0.644905D-01
     14 -0.743724D-02  0.000000D+00 -0.364706D-01  0.435800D+00
     15  0.000000D+00 -0.121819D-02  0.000000D+00  0.000000D+00  0.120365D-01
     16  0.616503D-02  0.000000D+00  0.212529D-02 -0.487178D-02  0.000000D+00
     17 -0.148109D-02  0.000000D+00 -0.365492D-03  0.750901D-03  0.000000D+00
     18  0.000000D+00  0.558792D-02  0.000000D+00  0.000000D+00 -0.330153D-02
     19  0.280140D-03  0.000000D+00 -0.157226D-02  0.614822D-03  0.000000D+00
     20 -0.473047D-03  0.000000D+00 -0.614822D-03  0.598771D-03  0.000000D+00
     21  0.000000D+00 -0.572579D-03  0.000000D+00  0.000000D+00 -0.275849D-04
     22  0.482219D-03  0.000000D+00 -0.938138D-04  0.178497D-03  0.000000D+00
     23  0.823614D-03  0.000000D+00 -0.280140D-03 -0.473047D-03  0.000000D+00
     24  0.000000D+00  0.318324D-02  0.000000D+00  0.000000D+00 -0.572579D-03
               16            17            18            19            20 
     16  0.868624D+00
     17  0.213509D-01  0.818665D+00
     18  0.000000D+00  0.000000D+00  0.496419D-01
     19 -0.734201D-01 -0.291403D-01  0.000000D+00  0.644905D-01
     20 -0.277400D-01 -0.421837D+00  0.000000D+00  0.364706D-01  0.435800D+00
     21  0.000000D+00  0.000000D+00 -0.153144D-01  0.000000D+00  0.000000D+00
     22 -0.320847D+00  0.168941D+00  0.000000D+00  0.991867D-02 -0.582440D-02
     23  0.173310D+00 -0.182654D+00  0.000000D+00  0.261297D-01 -0.743724D-02
     24  0.000000D+00  0.000000D+00 -0.875572D-02  0.000000D+00  0.000000D+00
               21            22            23            24 
     21  0.120365D-01
     22  0.000000D+00  0.333654D+00
     23  0.000000D+00 -0.175327D+00  0.176387D+00
     24 -0.121819D-02  0.000000D+00  0.000000D+00  0.118518D-01
 Force constants in internal coordinates: 
                1             2             3             4             5 
      1  0.348495D+00
      2  0.503774D-02  0.590194D+00
      3  0.503774D-02  0.481611D-01  0.590194D+00
      4  0.495488D-03  0.406520D-02 -0.548153D-02  0.447171D+00
      5 -0.163221D-02  0.718609D-02 -0.318398D-02 -0.144970D-02  0.439343D+00
      6 -0.163221D-02 -0.318398D-02  0.718609D-02  0.397188D-03  0.732041D-03
      7  0.495488D-03 -0.548153D-02  0.406520D-02  0.265624D-03  0.397188D-03
      8  0.356608D-02  0.831681D-02 -0.329340D-01 -0.239223D-02  0.380411D-02
      9  0.356608D-02 -0.329340D-01  0.831681D-02  0.604535D-03  0.628299D-03
     10 -0.713217D-02  0.246172D-01  0.246172D-01  0.178769D-02 -0.443241D-02
[...]
 
 
                                            Autjob by noodles.sh | Great noodly b
 asis sets
                                                            Raman Spectrum
 
     33  33          3                                                 1   1 1      11        1 1                                    
     55  44          1                                                 7   6 5      33        0 09          6  65 54                 
     88  76          4                                                 3   3 5      64        9 39          9  08 29                 
     76  30          7                                                 6   3 7      31        3 19          7  18 18                 
 
     XX  XX          X                                                 X   X X      XX        X XX          X   X  X                 
     XX  X           X                                                              X         X                                      
     XX  X           X                                                                                                               
     X   X           X                                                                                                               
         X           X                                                                                                               
         X           X                                                                                                               
         X           X                                                                                                               
         X                                                                                                                           
         X                                                                                                                           
         X                                                                                                                           
         X                                                                                                                           
         X                                                                                                                           
         X                                                                                                                           
         X                                                                                                                           
         X                                                                                                                           
         X                                                                                                                           
         X                                                                                                                           
         X                                                                                                                           
         X                                                                                                                           
         X                                                                                                                           
 
 ***** Axes restored to original set *****
 -------------------------------------------------------------------
 Center     Atomic                   Forces (Hartrees/Bohr)
 Number     Number              X              Y              Z
 -------------------------------------------------------------------
      1        6           0.000000000   -0.000000014    0.000000000
      2        1           0.000000000   -0.000000135    0.000000000
      3        7          -0.000000236    0.000000135    0.000000000
      4        1           0.000000074    0.000000047    0.000000000
      5        1          -0.000000008   -0.000000108    0.000000000
      6        7           0.000000236    0.000000135    0.000000000
      7        1           0.000000008   -0.000000108    0.000000000
      8        1          -0.000000074    0.000000047    0.000000000
 -------------------------------------------------------------------
 Cartesian Forces:  Max     0.000000236 RMS     0.000000092
 Force constants in Cartesian coordinates: 
                1             2             3             4             5 
      1  0.906276D+00
      2  0.000000D+00  0.789685D+00
      3  0.000000D+00  0.000000D+00  0.151503D+00
      4 -0.569850D-01  0.000000D+00  0.000000D+00  0.651351D-01
      5  0.000000D+00 -0.333286D+00  0.000000D+00  0.000000D+00  0.347679D+00
      6  0.000000D+00  0.000000D+00 -0.486804D-01  0.000000D+00  0.000000D+00
      7 -0.402341D+00  0.154112D+00  0.000000D+00 -0.124586D-02  0.800475D-03
      8  0.145765D+00 -0.233254D+00  0.000000D+00  0.329284D-01 -0.956975D-02
      9  0.000000D+00  0.000000D+00 -0.459630D-01  0.000000D+00  0.000000D+00
     10 -0.246186D-01 -0.168072D-01  0.000000D+00  0.932070D-03  0.179975D-03
     11  0.159566D-01  0.141932D-01  0.000000D+00  0.122117D-02  0.635630D-03
     12  0.000000D+00  0.000000D+00 -0.640639D-02  0.000000D+00  0.000000D+00
     13  0.231469D-02  0.337414D-01  0.000000D+00 -0.376124D-02  0.963592D-03
     14  0.582600D-02 -0.913898D-02  0.000000D+00  0.115746D-02  0.173762D-02
     15  0.000000D+00  0.000000D+00  0.957919D-03  0.000000D+00  0.000000D+00
     16 -0.402341D+00 -0.154112D+00  0.000000D+00 -0.124586D-02 -0.800475D-03
     17 -0.145765D+00 -0.233254D+00  0.000000D+00 -0.329284D-01 -0.956975D-02
     18  0.000000D+00  0.000000D+00 -0.459630D-01  0.000000D+00  0.000000D+00
     19  0.231469D-02 -0.337414D-01  0.000000D+00 -0.376124D-02 -0.963592D-03
     20 -0.582600D-02 -0.913898D-02  0.000000D+00 -0.115746D-02  0.173762D-02
     21  0.000000D+00  0.000000D+00  0.957919D-03  0.000000D+00  0.000000D+00
     22 -0.246186D-01  0.168072D-01  0.000000D+00  0.932070D-03 -0.179975D-03
     23 -0.159566D-01  0.141932D-01  0.000000D+00 -0.122117D-02  0.635630D-03
     24  0.000000D+00  0.000000D+00 -0.640639D-02  0.000000D+00  0.000000D+00
                6             7             8             9            10 
      6  0.285679D-01
      7  0.000000D+00  0.867910D+00
      8  0.000000D+00 -0.212163D-01  0.818122D+00
      9  0.629691D-02  0.000000D+00  0.000000D+00  0.497586D-01
     10  0.000000D+00 -0.320588D+00 -0.168769D+00  0.000000D+00  0.333391D+00
     11  0.000000D+00 -0.173139D+00 -0.182579D+00  0.000000D+00  0.175150D+00
     12 -0.366883D-02  0.000000D+00  0.000000D+00 -0.879263D-02  0.000000D+00
     13  0.000000D+00 -0.734385D-01  0.290745D-01  0.000000D+00  0.991594D-02
     14  0.000000D+00  0.276746D-01 -0.421474D+00  0.000000D+00  0.582361D-02
     15  0.742816D-02  0.000000D+00  0.000000D+00 -0.153474D-01  0.000000D+00
     16  0.000000D+00 -0.741376D-01 -0.130627D-01  0.000000D+00  0.171754D-02
     17  0.000000D+00  0.130627D-01  0.294857D-01  0.000000D+00  0.508402D-02
     18  0.629691D-02  0.000000D+00  0.000000D+00  0.117617D-01  0.000000D+00
     19  0.000000D+00  0.212390D-02  0.364960D-03  0.000000D+00 -0.938143D-04
     20  0.000000D+00  0.487014D-02  0.750202D-03  0.000000D+00 -0.178516D-03
     21  0.742816D-02  0.000000D+00  0.000000D+00 -0.329786D-02  0.000000D+00
     22  0.000000D+00  0.171754D-02 -0.508402D-02  0.000000D+00 -0.656379D-03
     23  0.000000D+00 -0.616414D-02 -0.148161D-02  0.000000D+00 -0.482377D-03
     24 -0.366883D-02  0.000000D+00  0.000000D+00  0.558362D-02  0.000000D+00
               11            12            13            14            15 
     11  0.176309D+00
     12  0.000000D+00  0.118967D-01
     13 -0.261153D-01  0.000000D+00  0.645112D-01
     14 -0.742777D-02  0.000000D+00 -0.364046D-01  0.435427D+00
     15  0.000000D+00 -0.122315D-02  0.000000D+00  0.000000D+00  0.120821D-01
     16  0.616414D-02  0.000000D+00  0.212390D-02 -0.487014D-02  0.000000D+00
     17 -0.148161D-02  0.000000D+00 -0.364960D-03  0.750202D-03  0.000000D+00
     18  0.000000D+00  0.558362D-02  0.000000D+00  0.000000D+00 -0.329786D-02
     19  0.280094D-03  0.000000D+00 -0.157212D-02  0.614571D-03  0.000000D+00
     20 -0.473003D-03  0.000000D+00 -0.614571D-03  0.599100D-03  0.000000D+00
     21  0.000000D+00 -0.572378D-03  0.000000D+00  0.000000D+00 -0.273857D-04
     22  0.482377D-03  0.000000D+00 -0.938143D-04  0.178516D-03  0.000000D+00
     23  0.823660D-03  0.000000D+00 -0.280094D-03 -0.473003D-03  0.000000D+00
     24  0.000000D+00  0.318306D-02  0.000000D+00  0.000000D+00 -0.572378D-03
               16            17            18            19            20 
     16  0.867910D+00
     17  0.212163D-01  0.818122D+00
     18  0.000000D+00  0.000000D+00  0.497586D-01
     19 -0.734385D-01 -0.290745D-01  0.000000D+00  0.645112D-01
     20 -0.276746D-01 -0.421474D+00  0.000000D+00  0.364046D-01  0.435427D+00
     21  0.000000D+00  0.000000D+00 -0.153474D-01  0.000000D+00  0.000000D+00
     22 -0.320588D+00  0.168769D+00  0.000000D+00  0.991594D-02 -0.582361D-02
     23  0.173139D+00 -0.182579D+00  0.000000D+00  0.261153D-01 -0.742777D-02
     24  0.000000D+00  0.000000D+00 -0.879263D-02  0.000000D+00  0.000000D+00
               21            22            23            24 
     21  0.120821D-01
     22  0.000000D+00  0.333391D+00
     23  0.000000D+00 -0.175150D+00  0.176309D+00
     24 -0.122315D-02  0.000000D+00  0.000000D+00  0.118967D-01
 Red2BG is reusing G-inverse.
 Force constants in internal coordinates: 
                1             2             3             4             5 
      1  0.347679D+00
      2  0.503645D-02  0.589590D+00
      3  0.503645D-02  0.481320D-01  0.589590D+00
      4  0.495436D-03  0.406477D-02 -0.548044D-02  0.446802D+00
      5 -0.163222D-02  0.718407D-02 -0.318277D-02 -0.145286D-02  0.438960D+00
      6 -0.163222D-02 -0.318277D-02  0.718407D-02  0.397197D-03  0.732220D-03
      7  0.495436D-03 -0.548044D-02  0.406477D-02  0.265442D-03  0.397197D-03
      8  0.356458D-02  0.830469D-02 -0.329179D-01 -0.239163D-02  0.380201D-02
      9  0.356458D-02 -0.329179D-01  0.830469D-02  0.604907D-03  0.628767D-03
     10 -0.712917D-02  0.246132D-01  0.246132D-01  0.178672D-02 -0.443078D-02
     11 -0.129101D-02  0.163872D-01  0.375257D-02  0.239944D-02 -0.763424D-02
     12  0.173971D-02  0.689259D-02 -0.139925D-02 -0.668869D-02  0.252615D-02
     13 -0.448698D-03 -0.232797D-01 -0.235333D-02  0.428926D-02  0.510808D-02
     14  0.173971D-02 -0.139925D-02  0.689259D-02 -0.226465D-03  0.107347D-02
     15 -0.129101D-02  0.375257D-02  0.163872D-01  0.233259D-03 -0.797260D-03
     16 -0.448698D-03 -0.235333D-02 -0.232797D-01 -0.679380D-05 -0.276214D-03
     17  0.000000D+00  0.000000D+00  0.000000D+00  0.000000D+00  0.000000D+00
     18  0.000000D+00  0.000000D+00  0.000000D+00  0.000000D+00  0.000000D+00
     19  0.000000D+00  0.000000D+00  0.000000D+00  0.000000D+00  0.000000D+00
     20  0.000000D+00  0.000000D+00  0.000000D+00  0.000000D+00  0.000000D+00
     21  0.000000D+00  0.000000D+00  0.000000D+00  0.000000D+00  0.000000D+00
     22  0.000000D+00  0.000000D+00  0.000000D+00  0.000000D+00  0.000000D+00
     23  0.000000D+00  0.000000D+00  0.000000D+00  0.000000D+00  0.000000D+00
     24  0.000000D+00  0.000000D+00  0.000000D+00  0.000000D+00  0.000000D+00
                6             7             8             9            10 
      6  0.438960D+00
      7 -0.145286D-02  0.446802D+00
      8  0.628767D-03  0.604907D-03  0.106005D+00
      9  0.380201D-02 -0.239163D-02 -0.343263D-01  0.106005D+00
     10 -0.443078D-02  0.178672D-02 -0.716787D-01 -0.716787D-01  0.143357D+00
     11 -0.797260D-03  0.233259D-03 -0.744722D-02 -0.399020D-02  0.114374D-01
     12  0.107347D-02 -0.226465D-03  0.871897D-02 -0.279960D-03 -0.843902D-02
     13 -0.276214D-03 -0.679383D-05 -0.127175D-02  0.427016D-02 -0.299840D-02
     14  0.252615D-02 -0.668869D-02 -0.279960D-03  0.871898D-02 -0.843902D-02
     15 -0.763424D-02  0.239944D-02 -0.399020D-02 -0.744722D-02  0.114374D-01
     16  0.510808D-02  0.428926D-02  0.427016D-02 -0.127175D-02 -0.299840D-02
     17  0.000000D+00  0.000000D+00  0.000000D+00  0.000000D+00  0.000000D+00
     18  0.000000D+00  0.000000D+00  0.000000D+00  0.000000D+00  0.000000D+00
     19  0.000000D+00  0.000000D+00  0.000000D+00  0.000000D+00  0.000000D+00
     20  0.000000D+00  0.000000D+00  0.000000D+00  0.000000D+00  0.000000D+00
     21  0.000000D+00  0.000000D+00  0.000000D+00  0.000000D+00  0.000000D+00
     22  0.000000D+00  0.000000D+00  0.000000D+00  0.000000D+00  0.000000D+00
     23  0.000000D+00  0.000000D+00  0.000000D+00  0.000000D+00  0.000000D+00
     24  0.000000D+00  0.000000D+00  0.000000D+00  0.000000D+00  0.000000D+00
               11            12            13            14            15 
     11  0.825934D-01
     12 -0.443014D-01  0.805258D-01
     13 -0.382920D-01 -0.362244D-01  0.745165D-01
     14 -0.154447D-02  0.236763D-02 -0.823156D-03  0.805258D-01
     15  0.207974D-02 -0.154447D-02 -0.535266D-03 -0.443014D-01  0.825934D-01
     16 -0.535266D-03 -0.823156D-03  0.135842D-02 -0.362244D-01 -0.382920D-01
     17  0.000000D+00  0.000000D+00  0.000000D+00  0.000000D+00  0.000000D+00
     18  0.000000D+00  0.000000D+00  0.000000D+00  0.000000D+00  0.000000D+00
     19  0.000000D+00  0.000000D+00  0.000000D+00  0.000000D+00  0.000000D+00
     20  0.000000D+00  0.000000D+00  0.000000D+00  0.000000D+00  0.000000D+00
     21  0.000000D+00  0.000000D+00  0.000000D+00  0.000000D+00  0.000000D+00
     22  0.000000D+00  0.000000D+00  0.000000D+00  0.000000D+00  0.000000D+00
     23  0.000000D+00  0.000000D+00  0.000000D+00  0.000000D+00  0.000000D+00
     24  0.000000D+00  0.000000D+00  0.000000D+00  0.000000D+00  0.000000D+00
               16            17            18            19            20 
     16  0.745165D-01
     17  0.000000D+00  0.975692D-02
     18  0.000000D+00  0.428531D-02  0.133800D-01
     19  0.000000D+00  0.382310D-02 -0.568383D-02  0.158584D-01
     20  0.000000D+00 -0.164851D-02  0.341084D-02  0.635152D-02  0.114109D-01
     21  0.000000D+00 -0.384749D-02 -0.545891D-02  0.612165D-02  0.451023D-02
     22  0.000000D+00 -0.366596D-02 -0.384749D-02  0.226786D-02  0.208633D-02
     23  0.000000D+00  0.208633D-02  0.451023D-02 -0.591370D-02 -0.348981D-02
     24  0.000000D+00  0.226786D-02  0.612165D-02 -0.976749D-02 -0.591370D-02
               21            22            23            24 
     21  0.133800D-01
     22  0.428531D-02  0.975692D-02
     23  0.341084D-02 -0.164851D-02  0.114109D-01
     24 -0.568383D-02  0.382310D-02  0.635152D-02  0.158584D-01
 Leave Link  716 at Thu Feb 26 00:36:56 2015, MaxMem= 1073741824 cpu:       0.2
 (Enter /apps/gaussian/g09_c01/g09/l9999.exe)
 1\1\GINC-CX1-25-1-2\Freq\RPBEPBE\Aug-CC-pVDZ\C1H5N2(1+)\JMF02\26-Feb-2
 015\0\\#p opt(VeryTight,CalcAll,Raman) Integral(Grid=UltraFine) PBEPBE
 /AUG-cc-pVDZ\\Autjob by noodles.sh | Great noodly basis sets\\1,1\C,0.
 ,0.4302296991,0.\H,0.,1.5286813624,0.\N,1.1734045675,-0.1776446204,0.\
 H,2.0310042134,0.3745655141,0.\H,1.2759077875,-1.1946134244,0.\N,-1.17
 34045675,-0.1776446204,0.\H,-1.2759077875,-1.1946134244,0.\H,-2.031004
 2134,0.3745655141,0.\\Version=EM64L-G09RevC.01\State=1-A1\HF=-150.2234
 803\RMSD=9.558e-09\RMSF=9.236e-08\ZeroPoint=0.0704224\Thermal=0.074251
 3\Dipole=0.,-0.1079603,0.\DipoleDeriv=1.7610329,0.,0.,0.,0.3379038,0.,
 0.,0.,0.2380888,0.0877882,0.,0.,0.,0.1417253,0.,0.,0.,0.1612271,-0.997
 0995,0.034939,0.,0.424513,-0.2300714,0.,0.,0.,-0.3410369,0.3801802,0.0
 524118,0.,0.1031914,0.2097487,0.,0.,0.,0.3201019,0.1925087,-0.058176,0
 .,-0.1123324,0.2805082,0.,0.,0.,0.3212769,-0.9970995,-0.034939,0.,-0.4
 24513,-0.2300714,0.,0.,0.,-0.3410369,0.1925087,0.058176,0.,0.1123324,0
 .2805082,0.,0.,0.,0.3212769,0.3801802,-0.0524118,0.,-0.1031914,0.20974
 87,0.,0.,0.,0.3201019\Polar=38.7117415,0.,25.8788217,0.,0.,18.8263817\
 PolarDeriv=0.,1.4893834,0.,0.,0.,0.,5.5311344,0.,-3.9584535,0.,0.,1.49
 00432,0.,0.,0.,0.,1.358223,0.,0.,0.9309562,0.,0.,0.,0.,0.9810182,0.,7.
 6601596,0.,0.,1.2875053,0.,0.,0.,0.,0.9213054,0.,2.9805658,-1.3217453,
 -0.5249605,0.,0.,1.6643805,-3.5195567,-0.2633293,3.21639,0.,0.,-0.8745
 19,0.,0.,0.,3.6763144,-0.8317361,0.,7.0418135,1.2254675,1.7144041,0.,0
 .,0.9336427,2.6670306,1.8860596,1.3363941,0.,0.,0.5692651,0.,0.,0.,0.4
 455508,0.2255174,0.,2.0744756,-1.1138919,0.5252787,0.,0.,0.2141205,-2.
 4035502,2.2965081,-6.4036372,0.,0.,-1.0835203,0.,0.,0.,0.0333392,-0.53
 35455,0.,-2.9805658,-1.3217453,0.5249605,0.,0.,-1.6643805,-3.5195567,0
 .2633293,3.21639,0.,0.,-0.874519,0.,0.,0.,-3.6763144,-0.8317361,0.,-2.
 0744756,-1.1138919,-0.5252787,0.,0.,-0.2141205,-2.4035502,-2.2965081,-
 6.4036372,0.,0.,-1.0835203,0.,0.,0.,-0.0333392,-0.5335455,0.,-7.041813
 5,1.2254675,-1.7144041,0.,0.,-0.9336427,2.6670306,-1.8860596,1.3363941
 ,0.,0.,0.5692651,0.,0.,0.,-0.4455508,0.2255174,0.\HyperPolar=0.,26.348
 5003,0.,-8.3539209,0.,0.,0.,0.,-0.813666,0.\PG=C02V [C2(C1H1),SGV(H4N2
 )]\NImag=0\\0.90627563,0.,0.78968502,0.,0.,0.15150323,-0.05698504,0.,0
 .,0.06513510,0.,-0.33328633,0.,0.,0.34767934,0.,0.,-0.04868035,0.,0.,0
 .02856788,-0.40234136,0.15411153,0.,-0.00124586,0.00080047,0.,0.867909
 72,0.14576454,-0.23325357,0.,0.03292838,-0.00956975,0.,-0.02121628,0.8
 1812160,0.,0.,-0.04596296,0.,0.,0.00629691,0.,0.,0.04975862,-0.0246186
 2,-0.01680723,0.,0.00093207,0.00017998,0.,-0.32058781,-0.16876941,0.,0
 .33339107,0.01595663,0.01419321,0.,0.00122117,0.00063563,0.,-0.1731390
 4,-0.18257885,0.,0.17514992,0.17630874,0.,0.,-0.00640639,0.,0.,-0.0036
 6883,0.,0.,-0.00879263,0.,0.,0.01189670,0.00231469,0.03374144,0.,-0.00
 376124,0.00096359,0.,-0.07343855,0.02907451,0.,0.00991594,-0.02611530,
 0.,0.06451119,0.00582600,-0.00913898,0.,0.00115746,0.00173762,0.,0.027
 67461,-0.42147373,0.,0.00582361,-0.00742777,0.,-0.03640462,0.43542657,
 0.,0.,0.00095792,0.,0.,0.00742816,0.,0.,-0.01534741,0.,0.,-0.00122315,
 0.,0.,0.01208212,-0.40234136,-0.15411153,0.,-0.00124586,-0.00080047,0.
 ,-0.07413757,-0.01306269,0.,0.00171754,0.00616414,0.,0.00212390,-0.004
 87014,0.,0.86790972,-0.14576454,-0.23325357,0.,-0.03292838,-0.00956975
 ,0.,0.01306269,0.02948572,0.,0.00508402,-0.00148161,0.,-0.00036496,0.0
 0075020,0.,0.02121628,0.81812160,0.,0.,-0.04596296,0.,0.,0.00629691,0.
 ,0.,0.01176172,0.,0.,0.00558362,0.,0.,-0.00329786,0.,0.,0.04975862,0.0
 0231469,-0.03374144,0.,-0.00376124,-0.00096359,0.,0.00212390,0.0003649
 6,0.,-0.00009381,0.00028009,0.,-0.00157212,0.00061457,0.,-0.07343855,-
 0.02907451,0.,0.06451119,-0.00582600,-0.00913898,0.,-0.00115746,0.0017
 3762,0.,0.00487014,0.00075020,0.,-0.00017852,-0.00047300,0.,-0.0006145
 7,0.00059910,0.,-0.02767461,-0.42147373,0.,0.03640462,0.43542657,0.,0.
 ,0.00095792,0.,0.,0.00742816,0.,0.,-0.00329786,0.,0.,-0.00057238,0.,0.
 ,-0.00002739,0.,0.,-0.01534741,0.,0.,0.01208212,-0.02461862,0.01680723
 ,0.,0.00093207,-0.00017998,0.,0.00171754,-0.00508402,0.,-0.00065638,0.
 00048238,0.,-0.00009381,0.00017852,0.,-0.32058781,0.16876941,0.,0.0099
 1594,-0.00582361,0.,0.33339107,-0.01595663,0.01419321,0.,-0.00122117,0
 .00063563,0.,-0.00616414,-0.00148161,0.,-0.00048238,0.00082366,0.,-0.0
 0028009,-0.00047300,0.,0.17313904,-0.18257885,0.,0.02611530,-0.0074277
 7,0.,-0.17514992,0.17630874,0.,0.,-0.00640639,0.,0.,-0.00366883,0.,0.,
 0.00558362,0.,0.,0.00318306,0.,0.,-0.00057238,0.,0.,-0.00879263,0.,0.,
 -0.00122315,0.,0.,0.01189670\\0.,0.00000001,0.,0.,0.00000014,0.,0.0000
 0024,-0.00000014,0.,-0.00000007,-0.00000005,0.,0.,0.00000011,0.,-0.000
 00024,-0.00000014,0.,0.,0.00000011,0.,0.00000007,-0.00000005,0.\\\@


 JUST WHEN YOU THINK YOU'VE GOT THE WORLD ON A STRING,
 YOU FIND OUT IT'S YOUR LEASH.
 Job cpu time:  0 days  0 hours 14 minutes 45.3 seconds.
 File lengths (MBytes):  RWF=     14 Int=      0 D2E=      0 Chk=      2 Scr=      1
 Normal termination of Gaussian 09 at Thu Feb 26 00:36:56 2015.
