 Entering Gaussian System, Link 0=g03
 Input=FORMA_PBE1PBE_AUG-cc-pVTZ.com
 Output=FORMA_PBE1PBE_AUG-cc-pVTZ.log
 Initial command:
 /apps/gaussian/g09_c01/g09/l1.exe /tmp/pbs.8910286.cx1b/Gau-7891.inp -scrdir=/tmp/pbs.8910286.cx1b/
 Entering Link 1 = /apps/gaussian/g09_c01/g09/l1.exe PID=      7899.
  
 Copyright (c) 1988,1990,1992,1993,1995,1998,2003,2009,2011,
            Gaussian, Inc.  All Rights Reserved.
  
 This is part of the Gaussian(R) 09 program.  It is based on
 the Gaussian(R) 03 system (copyright 2003, Gaussian, Inc.),
 the Gaussian(R) 98 system (copyright 1998, Gaussian, Inc.),
 the Gaussian(R) 94 system (copyright 1995, Gaussian, Inc.),
 the Gaussian 92(TM) system (copyright 1992, Gaussian, Inc.),
 the Gaussian 90(TM) system (copyright 1990, Gaussian, Inc.),
 the Gaussian 88(TM) system (copyright 1988, Gaussian, Inc.),
 the Gaussian 86(TM) system (copyright 1986, Carnegie Mellon
 University), and the Gaussian 82(TM) system (copyright 1983,
 Carnegie Mellon University). Gaussian is a federally registered
 trademark of Gaussian, Inc.
  
 This software contains proprietary and confidential information,
 including trade secrets, belonging to Gaussian, Inc.
  
 This software is provided under written license and may be
 used, copied, transmitted, or stored only in accord with that
 written license.
  
 The following legend is applicable only to US Government
 contracts under FAR:
  
                    RESTRICTED RIGHTS LEGEND
  
 Use, reproduction and disclosure by the US Government is
 subject to restrictions as set forth in subparagraphs (a)
 and (c) of the Commercial Computer Software - Restricted
 Rights clause in FAR 52.227-19.
  
 Gaussian, Inc.
 340 Quinnipiac St., Bldg. 40, Wallingford CT 06492
  
  
 ---------------------------------------------------------------
 Warning -- This program may not be used in any manner that
 competes with the business of Gaussian, Inc. or will provide
 assistance to any competitor of Gaussian, Inc.  The licensee
 of this program is prohibited from giving any competitor of
 Gaussian, Inc. access to this program.  By using this program,
 the user acknowledges that Gaussian, Inc. is engaged in the
 business of creating and licensing software in the field of
 computational chemistry and represents and warrants to the
 licensee that it is not a competitor of Gaussian, Inc. and that
 it will not use this program in any manner prohibited above.
 ---------------------------------------------------------------
  

 Cite this work as:
 Gaussian 09, Revision C.01,
 M. J. Frisch, G. W. Trucks, H. B. Schlegel, G. E. Scuseria, 
 M. A. Robb, J. R. Cheeseman, G. Scalmani, V. Barone, B. Mennucci, 
 G. A. Petersson, H. Nakatsuji, M. Caricato, X. Li, H. P. Hratchian, 
 A. F. Izmaylov, J. Bloino, G. Zheng, J. L. Sonnenberg, M. Hada, 
 M. Ehara, K. Toyota, R. Fukuda, J. Hasegawa, M. Ishida, T. Nakajima, 
 Y. Honda, O. Kitao, H. Nakai, T. Vreven, J. A. Montgomery, Jr., 
 J. E. Peralta, F. Ogliaro, M. Bearpark, J. J. Heyd, E. Brothers, 
 K. N. Kudin, V. N. Staroverov, T. Keith, R. Kobayashi, J. Normand, 
 K. Raghavachari, A. Rendell, J. C. Burant, S. S. Iyengar, J. Tomasi, 
 M. Cossi, N. Rega, J. M. Millam, M. Klene, J. E. Knox, J. B. Cross, 
 V. Bakken, C. Adamo, J. Jaramillo, R. Gomperts, R. E. Stratmann, 
 O. Yazyev, A. J. Austin, R. Cammi, C. Pomelli, J. W. Ochterski, 
 R. L. Martin, K. Morokuma, V. G. Zakrzewski, G. A. Voth, 
 P. Salvador, J. J. Dannenberg, S. Dapprich, A. D. Daniels, 
 O. Farkas, J. B. Foresman, J. V. Ortiz, J. Cioslowski, 
 and D. J. Fox, Gaussian, Inc., Wallingford CT, 2010.
 
 ******************************************
 Gaussian 09:  EM64L-G09RevC.01 23-Sep-2011
                26-Feb-2015 
 ******************************************
 %Chk=FORMA_PBE1PBE_AUG-cc-pVTZ.chk
 %Mem=8Gb
 %nproc=8
 Will use up to    8 processors via shared memory.
 ----------------------------------------------------------------------
 #p opt(VeryTight,CalcAll,Raman) Integral(Grid=UltraFine) PBE1PBE/AUG-c
 c-pVTZ
 ----------------------------------------------------------------------
 1/7=1,10=4,14=-1,18=20,19=15,26=3,38=1/1,3;
 2/9=110,12=2,17=6,18=5,40=1/2;
 3/5=16,6=1,7=10,11=2,16=1,25=1,30=1,71=2,74=-13,75=-5/1,2,3;
 4//1;
 5/5=2,38=5/2;
 8/6=4,10=90,11=11/1;
 10/13=10,15=4/2;
 11/6=3,8=1,9=11,15=111,16=1/1,2,10;
 10/6=1/2;
 6/7=2,8=2,9=2,10=2,18=1,28=1/1;
 7/10=1,25=1/1,2,3,16;
 1/7=1,10=4,14=-1,18=20,19=15/3(3);
 2/9=110/2;
 7/8=1,9=1,25=1,44=-1/16;
 99//99;
 2/9=110/2;
 3/5=16,6=1,7=10,11=2,16=1,25=1,30=1,71=2,74=-13,75=-5/1,2,3;
 4/5=5,16=3/1;
 5/5=2,38=5/2;
 8/6=4,10=90,11=11/1;
 10/13=10,15=4/2;
 11/6=3,8=1,9=11,15=111,16=1/1,2,10;
 10/6=1/2;
 7/10=1,25=1/1,2,3,16;
 1/7=1,10=4,14=-1,18=20,19=15/3(-9);
 2/9=110/2;
 6/7=2,8=2,9=2,10=2,18=1,19=2,28=1/1;
 7/8=1,9=1,25=1,44=-1/16;
 99//99;
 Leave Link    1 at Thu Feb 26 00:31:18 2015, MaxMem= 1073741824 cpu:       0.3
 (Enter /apps/gaussian/g09_c01/g09/l101.exe)
 ----------------------------------------------
 Autjob by noodles.sh | Great noodly basis sets
 ----------------------------------------------
 Charge =  1 Multiplicity = 1
 Symbolic Z-Matrix:
 C                     0.        0.42727   0. 
 H                     0.        1.51386   0. 
 N                     1.16818  -0.17499   0. 
 H                     2.0221    0.37151   0. 
 H                     1.27341  -1.18533   0. 
 N                    -1.16818  -0.17499   0. 
 H                    -1.27341  -1.18533   0. 
 H                    -2.0221    0.37151   0. 
 
 NAtoms=      8 NQM=        0 NQMF=       0 NMMI=      8 NMMIF=      0
                NMic=       0 NMicF=      0.
                    Isotopes and Nuclear Properties:
 (Nuclear quadrupole moments (NQMom) in fm**2, nuclear magnetic moments (NMagM)
  in nuclear magnetons)

  Atom         1           2           3           4           5           6           7           8
 IAtWgt=          12           1          14           1           1          14           1           1
 AtmWgt=  12.0000000   1.0078250  14.0030740   1.0078250   1.0078250  14.0030740   1.0078250   1.0078250
 NucSpn=           0           1           2           1           1           2           1           1
 AtZEff=   0.0000000   0.0000000   0.0000000   0.0000000   0.0000000   0.0000000   0.0000000   0.0000000
 NQMom=    0.0000000   0.0000000   2.0440000   0.0000000   0.0000000   2.0440000   0.0000000   0.0000000
 NMagM=    0.0000000   2.7928460   0.4037610   2.7928460   2.7928460   0.4037610   2.7928460   2.7928460
 Leave Link  101 at Thu Feb 26 00:31:18 2015, MaxMem= 1073741824 cpu:       1.2
 (Enter /apps/gaussian/g09_c01/g09/l103.exe)

 GradGradGradGradGradGradGradGradGradGradGradGradGradGradGradGradGradGrad
 Berny optimization.
 Initialization pass.
                           ----------------------------
                           !    Initial Parameters    !
                           ! (Angstroms and Degrees)  !
 --------------------------                            --------------------------
 ! Name  Definition              Value          Derivative Info.                !
 --------------------------------------------------------------------------------
 ! R1    R(1,2)                  1.0866         calculate D2E/DX2 analytically  !
 ! R2    R(1,3)                  1.3143         calculate D2E/DX2 analytically  !
 ! R3    R(1,6)                  1.3143         calculate D2E/DX2 analytically  !
 ! R4    R(3,4)                  1.0138         calculate D2E/DX2 analytically  !
 ! R5    R(3,5)                  1.0158         calculate D2E/DX2 analytically  !
 ! R6    R(6,7)                  1.0158         calculate D2E/DX2 analytically  !
 ! R7    R(6,8)                  1.0138         calculate D2E/DX2 analytically  !
 ! A1    A(2,1,3)              117.2736         calculate D2E/DX2 analytically  !
 ! A2    A(2,1,6)              117.2736         calculate D2E/DX2 analytically  !
 ! A3    A(3,1,6)              125.4529         calculate D2E/DX2 analytically  !
 ! A4    A(1,3,4)              120.1077         calculate D2E/DX2 analytically  !
 ! A5    A(1,3,5)              123.2199         calculate D2E/DX2 analytically  !
 ! A6    A(4,3,5)              116.6724         calculate D2E/DX2 analytically  !
 ! A7    A(1,6,7)              123.2199         calculate D2E/DX2 analytically  !
 ! A8    A(1,6,8)              120.1077         calculate D2E/DX2 analytically  !
 ! A9    A(7,6,8)              116.6724         calculate D2E/DX2 analytically  !
 ! D1    D(2,1,3,4)              0.0            calculate D2E/DX2 analytically  !
 ! D2    D(2,1,3,5)            180.0            calculate D2E/DX2 analytically  !
 ! D3    D(6,1,3,4)            180.0            calculate D2E/DX2 analytically  !
 ! D4    D(6,1,3,5)              0.0            calculate D2E/DX2 analytically  !
 ! D5    D(2,1,6,7)            180.0            calculate D2E/DX2 analytically  !
 ! D6    D(2,1,6,8)              0.0            calculate D2E/DX2 analytically  !
 ! D7    D(3,1,6,7)              0.0            calculate D2E/DX2 analytically  !
 ! D8    D(3,1,6,8)            180.0            calculate D2E/DX2 analytically  !
 --------------------------------------------------------------------------------
 Trust Radius=3.00D-01 FncErr=1.00D-07 GrdErr=1.00D-06
 Number of steps in this run=     34 maximum allowed number of steps=    100.
 GradGradGradGradGradGradGradGradGradGradGradGradGradGradGradGradGradGrad

 Leave Link  103 at Thu Feb 26 00:31:18 2015, MaxMem= 1073741824 cpu:       0.0
 (Enter /apps/gaussian/g09_c01/g09/l202.exe)
                          Input orientation:                          
 ---------------------------------------------------------------------
 Center     Atomic      Atomic             Coordinates (Angstroms)
 Number     Number       Type             X           Y           Z
 ---------------------------------------------------------------------
      1          6           0        0.000000    0.427270    0.000000
      2          1           0        0.000000    1.513864    0.000000
      3          7           0        1.168180   -0.174990    0.000000
      4          1           0        2.022103    0.371511    0.000000
      5          1           0        1.273414   -1.185325    0.000000
      6          7           0       -1.168180   -0.174990    0.000000
      7          1           0       -1.273414   -1.185325    0.000000
      8          1           0       -2.022103    0.371511    0.000000
 ---------------------------------------------------------------------
                    Distance matrix (angstroms):
                    1          2          3          4          5
     1  C    0.000000
     2  H    1.086594   0.000000
     3  N    1.314291   2.053502   0.000000
     4  H    2.022872   2.322471   1.013828   0.000000
     5  H    2.054762   2.984494   1.015801   1.727505   0.000000
     6  N    1.314291   2.053502   2.336360   3.236753   2.642377
     7  H    2.054762   2.984494   2.642377   3.644746   2.546828
     8  H    2.022872   2.322471   3.236753   4.044206   3.644746
                    6          7          8
     6  N    0.000000
     7  H    1.015801   0.000000
     8  H    1.013828   1.727505   0.000000
 Stoichiometry    CH5N2(1+)
 Framework group  C2V[C2(CH),SGV(H4N2)]
 Deg. of freedom     7
 Full point group                 C2V     NOp   4
 Largest Abelian subgroup         C2V     NOp   4
 Largest concise Abelian subgroup C2      NOp   2
                         Standard orientation:                         
 ---------------------------------------------------------------------
 Center     Atomic      Atomic             Coordinates (Angstroms)
 Number     Number       Type             X           Y           Z
 ---------------------------------------------------------------------
      1          6           0        0.000000    0.000000    0.427270
      2          1           0        0.000000    0.000000    1.513864
      3          7           0        0.000000    1.168180   -0.174990
      4          1           0        0.000000    2.022103    0.371511
      5          1           0        0.000000    1.273414   -1.185325
      6          7           0        0.000000   -1.168180   -0.174990
      7          1           0        0.000000   -1.273414   -1.185325
      8          1           0        0.000000   -2.022103    0.371511
 ---------------------------------------------------------------------
 Rotational constants (GHZ):     59.6815563     10.1627081      8.6839806
 Leave Link  202 at Thu Feb 26 00:31:18 2015, MaxMem= 1073741824 cpu:       0.1
 (Enter /apps/gaussian/g09_c01/g09/l301.exe)
 Standard basis: Aug-CC-pVTZ (5D, 7F)
 Ernie: Thresh=  0.10000D-02 Tol=  0.10000D-05 Strict=F.
 Ernie:  9 primitive shells out of 145 were deleted.
 There are    92 symmetry adapted basis functions of A1  symmetry.
 There are    37 symmetry adapted basis functions of A2  symmetry.
 There are    46 symmetry adapted basis functions of B1  symmetry.
 There are    78 symmetry adapted basis functions of B2  symmetry.
 Integral buffers will be    131072 words long.
 Raffenetti 2 integral format.
 Two-electron integral symmetry is turned on.
   253 basis functions,   351 primitive gaussians,   290 cartesian basis functions
    12 alpha electrons       12 beta electrons
       nuclear repulsion energy        79.4241064683 Hartrees.
 IExCor= 1009 DFT=T Ex+Corr=PBE1PBE ExCW=0 ScaHFX=  0.250000
 ScaDFX=  0.750000  0.750000  1.000000  1.000000 ScalE2=  1.000000  1.000000
 IRadAn=      5 IRanWt=     -1 IRanGd=            0 ICorTp=0
 NAtoms=    8 NActive=    8 NUniq=    5 SFac= 2.56D+00 NAtFMM=   60 NAOKFM=F Big=F
 Leave Link  301 at Thu Feb 26 00:31:18 2015, MaxMem= 1073741824 cpu:       0.5
 (Enter /apps/gaussian/g09_c01/g09/l302.exe)
 NPDir=0 NMtPBC=     1 NCelOv=     1 NCel=       1 NClECP=     1 NCelD=      1
         NCelK=      1 NCelE2=     1 NClLst=     1 CellRange=     0.0.
 One-electron integrals computed using PRISM.
 One-electron integral symmetry used in STVInt
 NBasis=   253 RedAO= T  NBF=    92    37    46    78
 NBsUse=   253 1.00D-06 NBFU=    92    37    46    78
 Precomputing XC quadrature grid using
 IXCGrd= 2 IRadAn=           5 IRanWt=          -1 IRanGd=           0 AccXCQ= 0.00D+00.
 NRdTot=     686 NPtTot=      184860 NUsed=      189779 NTot=      189811
 NSgBfM=   290   290   290   290   290 NAtAll=     8     8.
 Leave Link  302 at Thu Feb 26 00:31:19 2015, MaxMem= 1073741824 cpu:       2.2
 (Enter /apps/gaussian/g09_c01/g09/l303.exe)
 DipDrv:  MaxL=1.
 Leave Link  303 at Thu Feb 26 00:31:19 2015, MaxMem= 1073741824 cpu:       0.5
 (Enter /apps/gaussian/g09_c01/g09/l401.exe)
 Harris functional with IExCor= 1009 diagonalized for initial guess.
 ExpMin= 2.53D-02 ExpMax= 1.14D+04 ExpMxC= 3.89D+02 IAcc=3 IRadAn=         5 AccDes= 0.00D+00
 HarFok:  IExCor= 1009 AccDes= 0.00D+00 IRadAn=         5 IDoV= 1
 ScaDFX=  1.000000  1.000000  1.000000  1.000000
 FoFCou: FMM=F IPFlag=           0 FMFlag=      100000 FMFlg1=           0
         NFxFlg=           0 DoJE=T BraDBF=F KetDBF=T FulRan=T
         Omega=  0.000000  0.000000  1.000000  0.000000  0.000000 ICntrl=     500 IOpCl=  0
         NMat0=    1 NMatS0=    1 NMatT0=    0 NMatD0=    1 NMtDS0=    0 NMtDT0=    0
         I1Cent=           4 NGrid=           0.
 Petite list used in FoFCou.
 Harris En= -150.344882330593    
 Initial guess orbital symmetries:
       Occupied  (B2) (A1) (A1) (A1) (B2) (A1) (A1) (B2) (B2) (A1)
                 (B1) (A2)
       Virtual   (B1) (A1) (B2) (A1) (B2) (A1) (B1) (A1) (B2) (A1)
                 (A1) (A2) (B2) (B1) (A1) (B2) (A1) (B2) (B1) (A1)
                 (A1) (B2) (A2) (B2) (A1) (B1) (A1) (B2) (A1) (B2)
                 (B1) (A1) (A2) (A1) (B1) (A1) (B2) (A1) (A2) (B2)
                 (A1) (B2) (B2) (B1) (A1) (B2) (A2) (A1) (B2) (B1)
                 (B1) (A2) (A1) (B2) (A1) (B2) (A1) (A1) (A1) (B1)
                 (B2) (A1) (A2) (B2) (B1) (A1) (B2) (A2) (A1) (B1)
                 (A2) (A1) (B1) (B2) (B2) (A1) (B2) (B1) (A1) (A2)
                 (A1) (B2) (B1) (A2) (B1) (A1) (B2) (A1) (A1) (A2)
                 (B2) (B2) (A2) (B2) (B1) (A1) (A2) (A1) (B2) (A1)
                 (B1) (B2) (B1) (A1) (B2) (A2) (A1) (B2) (B1) (B2)
                 (A1) (A1) (A2) (A1) (B1) (B2) (B2) (B1) (A2) (A1)
                 (B2) (B1) (A1) (A1) (A2) (A1) (B2) (B2) (A1) (A1)
                 (A2) (B1) (B2) (B1) (A1) (B2) (B2) (A2) (B1) (B2)
                 (A1) (B2) (A2) (A1) (A1) (B2) (B1) (B2) (A1) (A1)
                 (B2) (B1) (A1) (A2) (B2) (B1) (B1) (A2) (A1) (A1)
                 (B2) (A1) (A1) (A2) (B2) (B1) (B2) (A1) (A2) (A1)
                 (B2) (A1) (B1) (A2) (B1) (A1) (A2) (B1) (A2) (B2)
                 (B2) (B1) (A1) (A1) (A2) (B2) (A1) (B2) (B1) (B2)
                 (A1) (B1) (A1) (A2) (B1) (A1) (B2) (B2) (A2) (A1)
                 (B2) (A1) (B1) (B2) (B2) (A2) (A1) (B2) (B1) (B2)
                 (A1) (B1) (A2) (A1) (B1) (A1) (B2) (A1) (A2) (B2)
                 (A2) (B1) (B2) (A2) (A1) (B1) (B2) (A1) (B2) (A1)
                 (B2) (A1) (A1) (A1) (B2) (B2) (A1) (B2) (A1) (B2)
                 (A1)
 The electronic state of the initial guess is 1-A1.
 Leave Link  401 at Thu Feb 26 00:31:19 2015, MaxMem= 1073741824 cpu:       4.4
 (Enter /apps/gaussian/g09_c01/g09/l502.exe)
 Closed shell SCF:
 Requested convergence on RMS density matrix=1.00D-08 within 128 cycles.
 Requested convergence on MAX density matrix=1.00D-06.
 Requested convergence on             energy=1.00D-06.
 No special actions if energy rises.
 Using DIIS extrapolation, IDIIS=  1040.
 Integral symmetry usage will be decided dynamically.
       189694 words used for storage of precomputed grid.
 Keep R1 ints in memory in canonical form, NReq=903016134.
 IEnd=      465070 IEndB=      465070 NGot=  1073741824 MDV=   183147647
 LenX=   183147647 LenY=   183063106
 Symmetry not used in FoFDir.
 MinBra= 0 MaxBra= 3 Meth= 1.
 IRaf=       0 NMat=   1 IRICut=       1 DoRegI=T DoRafI=F ISym2E= 0 JSym2E=0.

 Cycle   1  Pass 1  IDiag  1:
 E= -150.226609706941    
 DIIS: error= 2.87D-02 at cycle   1 NSaved=   1.
 NSaved= 1 IEnMin= 1 EnMin= -150.226609706941     IErMin= 1 ErrMin= 2.87D-02
 ErrMax= 2.87D-02 EMaxC= 1.00D-01 BMatC= 7.70D-02 BMatP= 7.70D-02
 IDIUse=3 WtCom= 7.13D-01 WtEn= 2.87D-01
 Coeff-Com:  0.100D+01
 Coeff-En:   0.100D+01
 Coeff:      0.100D+01
 Gap=     0.258 Goal=   None    Shift=    0.000
 GapD=    0.258 DampG=1.000 DampE=0.500 DampFc=0.5000 IDamp=-1.
 Damping current iteration by 5.00D-01
 RMSDP=9.97D-04 MaxDP=3.96D-02              OVMax= 9.91D-02

 Cycle   2  Pass 1  IDiag  1:
 E= -150.245934805142     Delta-E=       -0.019325098201 Rises=F Damp=T
 DIIS: error= 5.96D-03 at cycle   2 NSaved=   2.
 NSaved= 2 IEnMin= 2 EnMin= -150.245934805142     IErMin= 2 ErrMin= 5.96D-03
 ErrMax= 5.96D-03 EMaxC= 1.00D-01 BMatC= 5.67D-03 BMatP= 7.70D-02
 IDIUse=3 WtCom= 9.40D-01 WtEn= 5.96D-02
 Coeff-Com: -0.758D-02 0.101D+01
 Coeff-En:   0.114D+00 0.886D+00
 Coeff:     -0.358D-03 0.100D+01
 Gap=     0.303 Goal=   None    Shift=    0.000
 RMSDP=4.24D-04 MaxDP=1.92D-02 DE=-1.93D-02 OVMax= 8.14D-02

 Cycle   3  Pass 1  IDiag  1:
 E= -150.268903532743     Delta-E=       -0.022968727600 Rises=F Damp=F
 DIIS: error= 3.97D-03 at cycle   3 NSaved=   3.
 NSaved= 3 IEnMin= 3 EnMin= -150.268903532743     IErMin= 3 ErrMin= 3.97D-03
 ErrMax= 3.97D-03 EMaxC= 1.00D-01 BMatC= 1.91D-03 BMatP= 5.67D-03
 IDIUse=3 WtCom= 9.60D-01 WtEn= 3.97D-02
 Coeff-Com: -0.100D+00 0.325D+00 0.775D+00
 Coeff-En:   0.000D+00 0.000D+00 0.100D+01
 Coeff:     -0.964D-01 0.312D+00 0.784D+00
 Gap=     0.292 Goal=   None    Shift=    0.000
 RMSDP=1.04D-04 MaxDP=5.69D-03 DE=-2.30D-02 OVMax= 2.22D-02

 Cycle   4  Pass 1  IDiag  1:
 E= -150.270177550740     Delta-E=       -0.001274017997 Rises=F Damp=F
 DIIS: error= 1.96D-03 at cycle   4 NSaved=   4.
 NSaved= 4 IEnMin= 4 EnMin= -150.270177550740     IErMin= 4 ErrMin= 1.96D-03
 ErrMax= 1.96D-03 EMaxC= 1.00D-01 BMatC= 3.03D-04 BMatP= 1.91D-03
 IDIUse=3 WtCom= 9.80D-01 WtEn= 1.96D-02
 Coeff-Com: -0.460D-01 0.958D-01 0.400D+00 0.550D+00
 Coeff-En:   0.000D+00 0.000D+00 0.961D-01 0.904D+00
 Coeff:     -0.451D-01 0.940D-01 0.394D+00 0.557D+00
 Gap=     0.295 Goal=   None    Shift=    0.000
 RMSDP=3.54D-05 MaxDP=1.97D-03 DE=-1.27D-03 OVMax= 7.23D-03

 Cycle   5  Pass 1  IDiag  1:
 E= -150.270458318119     Delta-E=       -0.000280767379 Rises=F Damp=F
 DIIS: error= 2.04D-04 at cycle   5 NSaved=   5.
 NSaved= 5 IEnMin= 5 EnMin= -150.270458318119     IErMin= 5 ErrMin= 2.04D-04
 ErrMax= 2.04D-04 EMaxC= 1.00D-01 BMatC= 3.65D-06 BMatP= 3.03D-04
 IDIUse=3 WtCom= 9.98D-01 WtEn= 2.04D-03
 Coeff-Com: -0.123D-01 0.232D-01 0.117D+00 0.203D+00 0.670D+00
 Coeff-En:   0.000D+00 0.000D+00 0.000D+00 0.000D+00 0.100D+01
 Coeff:     -0.122D-01 0.232D-01 0.116D+00 0.202D+00 0.670D+00
 Gap=     0.295 Goal=   None    Shift=    0.000
 RMSDP=4.68D-06 MaxDP=1.50D-04 DE=-2.81D-04 OVMax= 4.26D-04

 Cycle   6  Pass 1  IDiag  1:
 E= -150.270461445997     Delta-E=       -0.000003127878 Rises=F Damp=F
 DIIS: error= 1.72D-05 at cycle   6 NSaved=   6.
 NSaved= 6 IEnMin= 6 EnMin= -150.270461445997     IErMin= 6 ErrMin= 1.72D-05
 ErrMax= 1.72D-05 EMaxC= 1.00D-01 BMatC= 4.25D-08 BMatP= 3.65D-06
 IDIUse=1 WtCom= 1.00D+00 WtEn= 0.00D+00
 Coeff-Com: -0.511D-03 0.724D-03 0.824D-02 0.229D-01 0.124D+00 0.845D+00
 Coeff:     -0.511D-03 0.724D-03 0.824D-02 0.229D-01 0.124D+00 0.845D+00
 Gap=     0.295 Goal=   None    Shift=    0.000
 RMSDP=6.47D-07 MaxDP=2.39D-05 DE=-3.13D-06 OVMax= 5.10D-05

 Cycle   7  Pass 1  IDiag  1:
 E= -150.270461482855     Delta-E=       -0.000000036859 Rises=F Damp=F
 DIIS: error= 2.82D-06 at cycle   7 NSaved=   7.
 NSaved= 7 IEnMin= 7 EnMin= -150.270461482855     IErMin= 7 ErrMin= 2.82D-06
 ErrMax= 2.82D-06 EMaxC= 1.00D-01 BMatC= 1.26D-09 BMatP= 4.25D-08
 IDIUse=1 WtCom= 1.00D+00 WtEn= 0.00D+00
 Coeff-Com:  0.255D-03-0.517D-03-0.215D-02-0.151D-02-0.226D-02 0.124D+00
 Coeff-Com:  0.882D+00
 Coeff:      0.255D-03-0.517D-03-0.215D-02-0.151D-02-0.226D-02 0.124D+00
 Coeff:      0.882D+00
 Gap=     0.295 Goal=   None    Shift=    0.000
 RMSDP=1.08D-07 MaxDP=5.05D-06 DE=-3.69D-08 OVMax= 7.60D-06

 Cycle   8  Pass 1  IDiag  1:
 E= -150.270461483900     Delta-E=       -0.000000001045 Rises=F Damp=F
 DIIS: error= 4.63D-07 at cycle   8 NSaved=   8.
 NSaved= 8 IEnMin= 8 EnMin= -150.270461483900     IErMin= 8 ErrMin= 4.63D-07
 ErrMax= 4.63D-07 EMaxC= 1.00D-01 BMatC= 3.31D-11 BMatP= 1.26D-09
 IDIUse=1 WtCom= 1.00D+00 WtEn= 0.00D+00
 Coeff-Com:  0.875D-05-0.161D-04-0.262D-03-0.338D-03-0.177D-02-0.657D-02
 Coeff-Com:  0.349D-01 0.974D+00
 Coeff:      0.875D-05-0.161D-04-0.262D-03-0.338D-03-0.177D-02-0.657D-02
 Coeff:      0.349D-01 0.974D+00
 Gap=     0.295 Goal=   None    Shift=    0.000
 RMSDP=1.29D-08 MaxDP=3.84D-07 DE=-1.04D-09 OVMax= 1.19D-06

 Cycle   9  Pass 1  IDiag  1:
 E= -150.270461483927     Delta-E=       -0.000000000026 Rises=F Damp=F
 DIIS: error= 4.29D-08 at cycle   9 NSaved=   9.
 NSaved= 9 IEnMin= 9 EnMin= -150.270461483927     IErMin= 9 ErrMin= 4.29D-08
 ErrMax= 4.29D-08 EMaxC= 1.00D-01 BMatC= 2.04D-13 BMatP= 3.31D-11
 IDIUse=1 WtCom= 1.00D+00 WtEn= 0.00D+00
 Coeff-Com: -0.326D-05 0.664D-05 0.707D-05 0.250D-06-0.133D-03-0.220D-02
 Coeff-Com: -0.110D-01 0.803D-01 0.933D+00
 Coeff:     -0.326D-05 0.664D-05 0.707D-05 0.250D-06-0.133D-03-0.220D-02
 Coeff:     -0.110D-01 0.803D-01 0.933D+00
 Gap=     0.295 Goal=   None    Shift=    0.000
 RMSDP=1.60D-09 MaxDP=6.23D-08 DE=-2.64D-11 OVMax= 1.69D-07

 SCF Done:  E(RPBE1PBE) =  -150.270461484     A.U. after    9 cycles
             Convg  =    0.1603D-08             -V/T =  2.0066
 KE= 1.492889957399D+02 PE=-5.025755787614D+02 EE= 1.235920150693D+02
 Leave Link  502 at Thu Feb 26 00:31:50 2015, MaxMem= 1073741824 cpu:     245.7
 (Enter /apps/gaussian/g09_c01/g09/l801.exe)
 Range of M.O.s used for correlation:     1   253
 NBasis=   253 NAE=    12 NBE=    12 NFC=     0 NFV=     0
 NROrb=    253 NOA=    12 NOB=    12 NVA=   241 NVB=   241

 **** Warning!!: The largest alpha MO coefficient is  0.47594428D+02

 Leave Link  801 at Thu Feb 26 00:31:50 2015, MaxMem= 1073741824 cpu:       0.1
 (Enter /apps/gaussian/g09_c01/g09/l1002.exe)
 Minotr:  Closed shell wavefunction.
          Direct CPHF calculation.
          Differentiating once with respect to electric field.
                with respect to dipole field.
          Electric field/nuclear overlap derivatives assumed to be zero.
          Using symmetry in CPHF.
          Requested convergence is 1.0D-08 RMS, and 1.0D-07 maximum.
          Secondary convergence is 1.0D-12 RMS, and 1.0D-12 maximum.
          NewPWx=F KeepS1=T KeepF1=T KeepIn=T MapXYZ=F SortEE=F KeepMc=T.
          MDV=    1073741756 using IRadAn=       1.
 Generate precomputed XC quadrature information.
          Keep R1 ints in memory in canonical form, NReq=892175092.
 Symmetry not used in FoFDir.
 MinBra= 0 MaxBra= 3 Meth= 1.
 IRaf=       0 NMat=   1 IRICut=       1 DoRegI=T DoRafI=F ISym2E= 0 JSym2E=0.
          Solving linear equations simultaneously, MaxMat=       0.
          There are     3 degrees of freedom in the 1st order CPHF.  IDoFFX=0.
      3 vectors produced by pass  0 Test12= 9.64D-14 3.33D-08 XBig12= 3.10D+01 4.67D+00.
 AX will form     3 AO Fock derivatives at one time.
      3 vectors produced by pass  1 Test12= 9.64D-14 3.33D-08 XBig12= 8.46D+00 8.74D-01.
      3 vectors produced by pass  2 Test12= 9.64D-14 3.33D-08 XBig12= 8.86D-01 2.99D-01.
      3 vectors produced by pass  3 Test12= 9.64D-14 3.33D-08 XBig12= 2.06D-02 3.36D-02.
      3 vectors produced by pass  4 Test12= 9.64D-14 3.33D-08 XBig12= 1.05D-03 7.09D-03.
      3 vectors produced by pass  5 Test12= 9.64D-14 3.33D-08 XBig12= 1.78D-04 3.71D-03.
      3 vectors produced by pass  6 Test12= 9.64D-14 3.33D-08 XBig12= 5.33D-06 6.16D-04.
      3 vectors produced by pass  7 Test12= 9.64D-14 3.33D-08 XBig12= 1.13D-07 9.24D-05.
      2 vectors produced by pass  8 Test12= 9.64D-14 3.33D-08 XBig12= 9.97D-10 8.00D-06.
      2 vectors produced by pass  9 Test12= 9.64D-14 3.33D-08 XBig12= 1.62D-11 1.02D-06.
      1 vectors produced by pass 10 Test12= 9.64D-14 3.33D-08 XBig12= 1.23D-13 6.75D-08.
 Inverted reduced A of dimension    29 with in-core refinement.
 End of Minotr Frequency-dependent properties file   721 does not exist.
 End of Minotr Frequency-dependent properties file   722 does not exist.
 Leave Link 1002 at Thu Feb 26 00:32:59 2015, MaxMem= 1073741824 cpu:     542.9
 (Enter /apps/gaussian/g09_c01/g09/l1101.exe)
 Using compressed storage, NAtomX=     8.
 Will process   9 centers per pass.
 Leave Link 1101 at Thu Feb 26 00:32:59 2015, MaxMem= 1073741824 cpu:       2.3
 (Enter /apps/gaussian/g09_c01/g09/l1102.exe)
 Symmetrizing basis deriv contribution to polar:
 IMax=3 JMax=2 DiffMx= 0.00D+00
 Leave Link 1102 at Thu Feb 26 00:32:59 2015, MaxMem= 1073741824 cpu:       0.6
 (Enter /apps/gaussian/g09_c01/g09/l1110.exe)
 Forming Gx(P) for the SCF density, NAtomX=     8.
 Integral derivatives from FoFDir/FoFCou, PRISM(SPDF).
 Do as many integral derivatives as possible in FoFDir.
 G2DrvN: MDV=    1073741656.
 G2DrvN: will do     9 centers at a time, making    1 passes doing MaxLOS=3.
 Calling FoFCou, ICntrl=  3107 FMM=F I1Cent=   0 AccDes= 0.00D+00.
 FoFCou: FMM=F IPFlag=           0 FMFlag=      100000 FMFlg1=           0
         NFxFlg=           0 DoJE=F BraDBF=F KetDBF=F FulRan=T
         Omega=  0.000000  0.000000  1.000000  0.000000  0.000000 ICntrl=    3107 IOpCl=  0
         NMat0=    1 NMatS0=    1 NMatT0=    0 NMatD0=    4 NMtDS0=    3 NMtDT0=    0
         I1Cent=           0 NGrid=           0.
 Petite list used in FoFCou.
 FoFDir/FoFCou used for L=0 through L=3.
 End of G2Drv Frequency-dependent properties file   721 does not exist.
 End of G2Drv Frequency-dependent properties file   722 does not exist.
 Leave Link 1110 at Thu Feb 26 00:33:41 2015, MaxMem= 1073741824 cpu:     334.3
 (Enter /apps/gaussian/g09_c01/g09/l1002.exe)
 Minotr:  Closed shell wavefunction.
          IDoAtm=11111111
          Direct CPHF calculation.
          Differentiating once with respect to electric field.
                with respect to dipole field.
          Differentiating once with respect to nuclear coordinates.
          Using symmetry in CPHF.
          Requested convergence is 1.0D-08 RMS, and 1.0D-07 maximum.
          Secondary convergence is 1.0D-12 RMS, and 1.0D-12 maximum.
          NewPWx=T KeepS1=F KeepF1=F KeepIn=T MapXYZ=F SortEE=F KeepMc=T.
          MDV=    1073741740 using IRadAn=       1.
 Generate precomputed XC quadrature information.
          Keep R1 ints in memory in canonical form, NReq=892175260.
 Symmetry not used in FoFDir.
 MinBra= 0 MaxBra= 3 Meth= 1.
 IRaf=       0 NMat=   1 IRICut=       1 DoRegI=T DoRafI=F ISym2E= 0 JSym2E=0.
          Solving linear equations simultaneously, MaxMat=       0.
          There are    18 degrees of freedom in the 1st order CPHF.  IDoFFX=4.
 Will reuse    3 saved solutions.
     15 vectors produced by pass  0 Test12= 1.61D-14 5.56D-09 XBig12= 1.36D-01 1.25D-01.
 AX will form    15 AO Fock derivatives at one time.
     15 vectors produced by pass  1 Test12= 1.61D-14 5.56D-09 XBig12= 3.81D-02 1.13D-01.
     15 vectors produced by pass  2 Test12= 1.61D-14 5.56D-09 XBig12= 4.79D-04 3.66D-03.
     15 vectors produced by pass  3 Test12= 1.61D-14 5.56D-09 XBig12= 4.84D-06 4.01D-04.
     15 vectors produced by pass  4 Test12= 1.61D-14 5.56D-09 XBig12= 4.45D-08 4.49D-05.
     15 vectors produced by pass  5 Test12= 1.61D-14 5.56D-09 XBig12= 8.99D-11 1.82D-06.
      6 vectors produced by pass  6 Test12= 1.61D-14 5.56D-09 XBig12= 1.38D-13 6.74D-08.
 Inverted reduced A of dimension    96 with in-core refinement.
 FullF1:  Do perturbations    1 to    18.
 Isotropic polarizability for W=    0.000000       26.87 Bohr**3.
 FullF1:  Do perturbations    1 to     6.
 End of Minotr Frequency-dependent properties file   721 does not exist.
 End of Minotr Frequency-dependent properties file   722 does not exist.
 Leave Link 1002 at Thu Feb 26 00:35:23 2015, MaxMem= 1073741824 cpu:     816.5
 (Enter /apps/gaussian/g09_c01/g09/l601.exe)
 Copying SCF densities to generalized density rwf, IOpCl= 0 IROHF=0.

 **********************************************************************

            Population analysis using the SCF density.

 **********************************************************************

 Orbital symmetries:
       Occupied  (B2) (A1) (A1) (A1) (B2) (A1) (A1) (B2) (B2) (A1)
                 (B1) (A2)
       Virtual   (B1) (A1) (A1) (B2) (B1) (A1) (B2) (A1) (B2) (A1)
                 (A2) (B1) (A1) (B2) (A1) (B2) (A1) (B2) (B1) (A1)
                 (A2) (A1) (B2) (B2) (B1) (A1) (A1) (B1) (A1) (B2)
                 (A2) (B2) (A1) (A1) (B1) (A2) (A1) (B2) (A1) (B2)
                 (A1) (B2) (B2) (B1) (A1) (A2) (B2) (B1) (A1) (B2)
                 (B1) (A2) (A1) (B2) (A1) (B2) (A1) (A1) (A1) (B1)
                 (B2) (A2) (A1) (B2) (B1) (A1) (A2) (B2) (A1) (B1)
                 (A2) (B2) (B1) (A1) (B2) (A1) (B1) (B2) (A1) (A2)
                 (A1) (B1) (B2) (A2) (A1) (B1) (B2) (A1) (A2) (A1)
                 (B2) (B2) (A2) (B2) (B1) (A1) (A2) (B2) (A1) (A1)
                 (B1) (B1) (B2) (B2) (A1) (A2) (A1) (B2) (B1) (B2)
                 (A1) (A1) (A2) (A1) (B1) (B2) (B2) (B1) (A2) (A1)
                 (B1) (B2) (A1) (A1) (A2) (A1) (B2) (B2) (A1) (A1)
                 (A2) (B1) (B2) (B1) (A1) (B2) (B2) (A2) (B1) (B2)
                 (B2) (A1) (A2) (A1) (A1) (B2) (B1) (B2) (A1) (A1)
                 (B1) (B2) (A1) (A2) (B2) (B1) (B1) (A1) (A2) (A1)
                 (B2) (A1) (A1) (B2) (A2) (B1) (A1) (B2) (A2) (A1)
                 (B2) (A1) (A2) (B1) (B1) (A2) (A1) (B1) (A2) (B2)
                 (B2) (B1) (A1) (A2) (A1) (B2) (A1) (B1) (B2) (B2)
                 (A1) (B1) (A1) (A2) (B1) (A1) (B2) (B2) (A2) (A1)
                 (B2) (B1) (A1) (B2) (B2) (A1) (A2) (B2) (B2) (B1)
                 (A1) (B1) (A1) (A2) (B1) (A1) (B2) (A1) (A2) (A2)
                 (B2) (B1) (B2) (A2) (A1) (B1) (B2) (A1) (B2) (A1)
                 (B2) (A1) (A1) (A1) (B2) (B2) (A1) (B2) (A1) (B2)
                 (A1)
 The electronic state is 1-A1.
 Alpha  occ. eigenvalues --  -14.65771 -14.65771 -10.56889  -1.24612  -1.15890
 Alpha  occ. eigenvalues --   -0.91514  -0.83308  -0.80795  -0.73950  -0.67791
 Alpha  occ. eigenvalues --   -0.65632  -0.52776
 Alpha virt. eigenvalues --   -0.23249  -0.17158  -0.14624  -0.14250  -0.09641
 Alpha virt. eigenvalues --   -0.09324  -0.09146  -0.07687  -0.05785  -0.05491
 Alpha virt. eigenvalues --   -0.04459  -0.03827  -0.03792  -0.01988  -0.01902
 Alpha virt. eigenvalues --   -0.00487  -0.00365   0.01696   0.02494   0.02850
 Alpha virt. eigenvalues --    0.05371   0.05417   0.06487   0.07527   0.08214
 Alpha virt. eigenvalues --    0.08486   0.12331   0.13521   0.13887   0.14575
 Alpha virt. eigenvalues --    0.14802   0.15102   0.15146   0.15629   0.17672
 Alpha virt. eigenvalues --    0.19332   0.19439   0.20183   0.21882   0.22225
 Alpha virt. eigenvalues --    0.22787   0.23808   0.25020   0.26453   0.27953
 Alpha virt. eigenvalues --    0.33709   0.33844   0.34629   0.35641   0.36353
 Alpha virt. eigenvalues --    0.37680   0.39976   0.40250   0.41654   0.42696
 Alpha virt. eigenvalues --    0.43533   0.45594   0.52090   0.54991   0.55248
 Alpha virt. eigenvalues --    0.57473   0.57785   0.58216   0.59707   0.60859
 Alpha virt. eigenvalues --    0.61515   0.62632   0.62838   0.65819   0.66469
 Alpha virt. eigenvalues --    0.68621   0.70299   0.70419   0.71555   0.72353
 Alpha virt. eigenvalues --    0.73417   0.74614   0.74658   0.77693   0.79301
 Alpha virt. eigenvalues --    0.81712   0.82997   0.83751   0.84975   0.87785
 Alpha virt. eigenvalues --    0.88004   0.91165   0.91453   0.92569   0.93103
 Alpha virt. eigenvalues --    0.95174   0.96174   0.97437   0.98881   1.01214
 Alpha virt. eigenvalues --    1.01695   1.03331   1.05132   1.05293   1.07386
 Alpha virt. eigenvalues --    1.11888   1.12803   1.13091   1.17848   1.17850
 Alpha virt. eigenvalues --    1.19513   1.21243   1.26943   1.27488   1.30328
 Alpha virt. eigenvalues --    1.32398   1.34092   1.36858   1.46419   1.48261
 Alpha virt. eigenvalues --    1.51320   1.57598   1.59778   1.59987   1.60733
 Alpha virt. eigenvalues --    1.62828   1.63640   1.64062   1.67669   1.71831
 Alpha virt. eigenvalues --    1.73311   1.76473   1.80751   1.86008   1.90612
 Alpha virt. eigenvalues --    1.91743   1.94656   1.98306   1.98777   2.02566
 Alpha virt. eigenvalues --    2.04171   2.05001   2.12126   2.12972   2.14443
 Alpha virt. eigenvalues --    2.15987   2.16138   2.23475   2.26783   2.29246
 Alpha virt. eigenvalues --    2.35761   2.53479   2.54703   2.63618   2.74668
 Alpha virt. eigenvalues --    2.86889   2.87519   3.01841   3.06007   3.08940
 Alpha virt. eigenvalues --    3.11742   3.19647   3.20507   3.23348   3.28087
 Alpha virt. eigenvalues --    3.31084   3.36548   3.44927   3.49044   3.50689
 Alpha virt. eigenvalues --    3.52005   3.52610   3.52691   3.53401   3.62276
 Alpha virt. eigenvalues --    3.67014   3.69563   3.74469   3.74796   3.78460
 Alpha virt. eigenvalues --    3.82347   3.84690   3.86749   3.90936   3.94803
 Alpha virt. eigenvalues --    3.97916   3.99558   4.03575   4.05384   4.08362
 Alpha virt. eigenvalues --    4.10487   4.14033   4.18575   4.19655   4.20946
 Alpha virt. eigenvalues --    4.22921   4.31096   4.32555   4.34376   4.37897
 Alpha virt. eigenvalues --    4.39883   4.42731   4.45245   4.47405   4.57938
 Alpha virt. eigenvalues --    4.64213   4.69094   4.69608   4.70841   4.76724
 Alpha virt. eigenvalues --    4.78888   4.82448   4.87026   4.94145   4.95863
 Alpha virt. eigenvalues --    4.98166   5.02577   5.07132   5.08263   5.11684
 Alpha virt. eigenvalues --    5.14219   5.24813   5.25817   5.35214   5.39745
 Alpha virt. eigenvalues --    5.40598   5.47236   5.53535   5.57299   5.60842
 Alpha virt. eigenvalues --    5.66781   5.74178   5.82752   5.83384   6.04408
 Alpha virt. eigenvalues --    6.19094   6.23357   6.45127   6.80700   6.82314
 Alpha virt. eigenvalues --    6.94785   7.05675   7.29312  16.17441  16.66130
 Alpha virt. eigenvalues --   17.41906
          Condensed to atoms (all electrons):
              1          2          3          4          5          6
     1  C    5.091103   0.214647   0.407158  -0.054654  -0.039992   0.407158
     2  H    0.214647   0.230405  -0.025248  -0.006066   0.003089  -0.025248
     3  N    0.407158  -0.025248   6.001529   0.430007   0.418850  -0.118751
     4  H   -0.054654  -0.006066   0.430007   0.589970  -0.078984   0.002508
     5  H   -0.039992   0.003089   0.418850  -0.078984   0.548948  -0.005079
     6  N    0.407158  -0.025248  -0.118751   0.002508  -0.005079   6.001529
     7  H   -0.039992   0.003089  -0.005079  -0.001354   0.001548   0.418850
     8  H   -0.054654  -0.006066   0.002508   0.000886  -0.001354   0.430007
              7          8
     1  C   -0.039992  -0.054654
     2  H    0.003089  -0.006066
     3  N   -0.005079   0.002508
     4  H   -0.001354   0.000886
     5  H    0.001548  -0.001354
     6  N    0.418850   0.430007
     7  H    0.548948  -0.078984
     8  H   -0.078984   0.589970
 Mulliken atomic charges:
              1
     1  C    0.069227
     2  H    0.611398
     3  N   -0.110974
     4  H    0.117688
     5  H    0.152973
     6  N   -0.110974
     7  H    0.152973
     8  H    0.117688
 Sum of Mulliken atomic charges =   1.00000
 Mulliken charges with hydrogens summed into heavy atoms:
              1
     1  C    0.680625
     3  N    0.159687
     6  N    0.159687
 Sum of Mulliken charges with hydrogens summed into heavy atoms =   1.00000
 APT atomic charges:
              1
     1  C    0.871086
     2  H    0.131274
     3  N   -0.590129
     4  H    0.312665
     5  H    0.276284
     6  N   -0.590129
     7  H    0.276284
     8  H    0.312665
 Sum of APT charges=   1.00000
 APT Atomic charges with hydrogens summed into heavy atoms:
              1
     1  C    1.002360
     2  H    0.000000
     3  N   -0.001180
     4  H    0.000000
     5  H    0.000000
     6  N   -0.001180
     7  H    0.000000
     8  H    0.000000
 Sum of APT charges=   1.00000
 Electronic spatial extent (au):  <R**2>=            158.6668
 Charge=              1.0000 electrons
 Dipole moment (field-independent basis, Debye):
    X=              0.0000    Y=              0.0000    Z=             -0.2161  Tot=              0.2161
 Quadrupole moment (field-independent basis, Debye-Ang):
   XX=            -19.1448   YY=             -4.2871   ZZ=            -10.2067
   XY=              0.0000   XZ=              0.0000   YZ=              0.0000
 Traceless Quadrupole moment (field-independent basis, Debye-Ang):
   XX=             -7.9319   YY=              6.9258   ZZ=              1.0062
   XY=              0.0000   XZ=              0.0000   YZ=              0.0000
 Octapole moment (field-independent basis, Debye-Ang**2):
  XXX=              0.0000  YYY=              0.0000  ZZZ=             -3.2441  XYY=              0.0000
  XXY=              0.0000  XXZ=             -0.0592  XZZ=              0.0000  YZZ=              0.0000
  YYZ=             -0.0445  XYZ=              0.0000
 Hexadecapole moment (field-independent basis, Debye-Ang**3):
 XXXX=            -17.5262 YYYY=            -70.4756 ZZZZ=            -23.0619 XXXY=              0.0000
 XXXZ=              0.0000 YYYX=              0.0000 YYYZ=              0.0000 ZZZX=              0.0000
 ZZZY=              0.0000 XXYY=            -27.5336 XXZZ=             -9.5458 YYZZ=            -17.8612
 XXYZ=              0.0000 YYXZ=              0.0000 ZZXY=              0.0000
 N-N= 7.942410646830D+01 E-N=-5.025755789247D+02  KE= 1.492889957399D+02
 Symmetry A1   KE= 8.851104981667D+01
 Symmetry A2   KE= 3.502707204906D+00
 Symmetry B1   KE= 2.736755085444D+00
 Symmetry B2   KE= 5.453848363288D+01
  Exact polarizability:  18.229   0.000  37.408   0.000   0.000  24.965
 Approx polarizability:  23.456   0.000  51.784   0.000   0.000  33.310
 No NMR shielding tensors so no spin-rotation constants.
 Leave Link  601 at Thu Feb 26 00:35:24 2015, MaxMem= 1073741824 cpu:       2.9
 (Enter /apps/gaussian/g09_c01/g09/l701.exe)
 Compute integral second derivatives.
 ... and contract with generalized density number  0.
 Leave Link  701 at Thu Feb 26 00:35:24 2015, MaxMem= 1073741824 cpu:       2.4
 (Enter /apps/gaussian/g09_c01/g09/l702.exe)
 L702 exits ... SP integral derivatives will be done elsewhere.
 Leave Link  702 at Thu Feb 26 00:35:24 2015, MaxMem= 1073741824 cpu:       0.1
 (Enter /apps/gaussian/g09_c01/g09/l703.exe)
 Compute integral second derivatives, UseDBF=F ICtDFT=           0.
 Integral derivatives from FoFDir, PRISM(SPDF).
 Calling FoFJK, ICntrl=    100127 FMM=F ISym2X=1 I1Cent= 0 IOpClX= 0 NMat=1 NMatS=1 NMatT=0.
 FoFCou: FMM=F IPFlag=           0 FMFlag=      100000 FMFlg1=         800
         NFxFlg=           0 DoJE=F BraDBF=F KetDBF=F FulRan=T
         Omega=  0.000000  0.000000  1.000000  0.000000  0.000000 ICntrl=  100127 IOpCl=  0
         NMat0=    1 NMatS0=    1 NMatT0=    0 NMatD0=    1 NMtDS0=    0 NMtDT0=    0
         I1Cent=           0 NGrid=           0.
 Petite list used in FoFCou.
 Leave Link  703 at Thu Feb 26 00:36:23 2015, MaxMem= 1073741824 cpu:     469.6
 (Enter /apps/gaussian/g09_c01/g09/l716.exe)
 Dipole        =-8.37339130D-17 6.48873316D-14-8.50250248D-02
 Polarizability= 1.82293649D+01 2.26364425D-12 3.74079768D+01
                 9.19616744D-13-9.41776008D-13 2.49654142D+01
 HyperPolar    =-3.37287447D-10-1.32454022D-10-1.06329248D-10
                -1.11113137D-10 1.52413705D-01-5.77128838D-12
                 2.89794708D+01-1.28591784D-10 8.40913287D-12
                -6.09368649D+00
 ***** Axes restored to original set *****
 -------------------------------------------------------------------
 Center     Atomic                   Forces (Hartrees/Bohr)
 Number     Number              X              Y              Z
 -------------------------------------------------------------------
      1        6           0.000000000   -0.008825749    0.000000000
      2        1           0.000000000   -0.001389110    0.000000000
      3        7          -0.005675605    0.001875955    0.000000000
      4        1          -0.004944888   -0.001874186    0.000000000
      5        1          -0.001423328    0.005105661    0.000000000
      6        7           0.005675605    0.001875955    0.000000000
      7        1           0.001423328    0.005105661    0.000000000
      8        1           0.004944888   -0.001874186    0.000000000
 -------------------------------------------------------------------
 Cartesian Forces:  Max     0.008825749 RMS     0.003312873
 Force constants in Cartesian coordinates: 
                1             2             3             4             5 
      1  0.907486D+00
      2  0.000000D+00  0.827735D+00
      3  0.000000D+00  0.000000D+00  0.174781D+00
      4 -0.632262D-01  0.000000D+00  0.000000D+00  0.695114D-01
      5  0.000000D+00 -0.344342D+00  0.000000D+00  0.000000D+00  0.359283D+00
      6  0.000000D+00  0.000000D+00 -0.545031D-01  0.000000D+00  0.000000D+00
      7 -0.397676D+00  0.149710D+00  0.000000D+00 -0.195288D-03  0.152004D-02
      8  0.134715D+00 -0.248325D+00  0.000000D+00  0.350589D-01 -0.979699D-02
      9  0.000000D+00  0.000000D+00 -0.546208D-01  0.000000D+00  0.000000D+00
     10 -0.269303D-01 -0.170143D-01  0.000000D+00  0.113243D-02  0.192939D-03
     11  0.163121D-01  0.157492D-01  0.000000D+00  0.932003D-03  0.756413D-03
     12  0.000000D+00  0.000000D+00 -0.632520D-02  0.000000D+00  0.000000D+00
     13  0.247625D-02  0.362668D-01  0.000000D+00 -0.407970D-02  0.940830D-03
     14  0.782900D-02 -0.912031D-02  0.000000D+00  0.937584D-03  0.156959D-02
     15  0.000000D+00  0.000000D+00  0.807288D-03  0.000000D+00  0.000000D+00
     16 -0.397676D+00 -0.149710D+00  0.000000D+00 -0.195288D-03 -0.152004D-02
     17 -0.134715D+00 -0.248325D+00  0.000000D+00 -0.350589D-01 -0.979699D-02
     18  0.000000D+00  0.000000D+00 -0.546208D-01  0.000000D+00  0.000000D+00
     19  0.247625D-02 -0.362668D-01  0.000000D+00 -0.407970D-02 -0.940830D-03
     20 -0.782900D-02 -0.912031D-02  0.000000D+00 -0.937584D-03  0.156959D-02
     21  0.000000D+00  0.000000D+00  0.807288D-03  0.000000D+00  0.000000D+00
     22 -0.269303D-01  0.170143D-01  0.000000D+00  0.113243D-02 -0.192939D-03
     23 -0.163121D-01  0.157492D-01  0.000000D+00 -0.932003D-03  0.756413D-03
     24  0.000000D+00  0.000000D+00 -0.632520D-02  0.000000D+00  0.000000D+00
                6             7             8             9            10 
      6  0.318771D-01
      7  0.000000D+00  0.884044D+00
      8  0.000000D+00 -0.139300D-01  0.845390D+00
      9  0.757631D-02  0.000000D+00  0.000000D+00  0.622135D-01
     10  0.000000D+00 -0.328202D+00 -0.170205D+00  0.000000D+00  0.342372D+00
     11  0.000000D+00 -0.174107D+00 -0.190107D+00  0.000000D+00  0.177261D+00
     12 -0.408766D-02  0.000000D+00  0.000000D+00 -0.118560D-01  0.000000D+00
     13  0.000000D+00 -0.798374D-01  0.292827D-01  0.000000D+00  0.102998D-01
     14  0.000000D+00  0.277289D-01 -0.430681D+00  0.000000D+00  0.512577D-02
     15  0.782433D-02  0.000000D+00  0.000000D+00 -0.184302D-01  0.000000D+00
     16  0.000000D+00 -0.823180D-01 -0.104901D-01  0.000000D+00  0.211935D-02
     17  0.000000D+00  0.104901D-01  0.346958D-01  0.000000D+00  0.534343D-02
     18  0.757631D-02  0.000000D+00  0.000000D+00  0.130690D-01  0.000000D+00
     19  0.000000D+00  0.206577D-02  0.912375D-03  0.000000D+00 -0.116387D-03
     20  0.000000D+00  0.528647D-02  0.461102D-03  0.000000D+00 -0.231066D-03
     21  0.782433D-02  0.000000D+00  0.000000D+00 -0.375390D-02  0.000000D+00
     22  0.000000D+00  0.211935D-02 -0.534343D-02  0.000000D+00 -0.674134D-03
     23  0.000000D+00 -0.669860D-02 -0.163679D-02  0.000000D+00 -0.473047D-03
     24 -0.408766D-02  0.000000D+00  0.000000D+00  0.580208D-02  0.000000D+00
               11            12            13            14            15 
     11  0.183837D+00
     12  0.000000D+00  0.150490D-01
     13 -0.277976D-01  0.000000D+00  0.707905D-01
     14 -0.897156D-02  0.000000D+00 -0.370590D-01  0.446520D+00
     15  0.000000D+00 -0.118613D-02  0.000000D+00  0.000000D+00  0.151735D-01
     16  0.669860D-02  0.000000D+00  0.206577D-02 -0.528647D-02  0.000000D+00
     17 -0.163679D-02  0.000000D+00 -0.912375D-03  0.461102D-03  0.000000D+00
     18  0.000000D+00  0.580208D-02  0.000000D+00  0.000000D+00 -0.375390D-02
     19  0.228177D-03  0.000000D+00 -0.159883D-02  0.493100D-03  0.000000D+00
     20 -0.532375D-03  0.000000D+00 -0.493100D-03  0.754464D-03  0.000000D+00
     21  0.000000D+00 -0.550712D-03  0.000000D+00  0.000000D+00  0.115843D-03
     22  0.473047D-03  0.000000D+00 -0.116387D-03  0.231066D-03  0.000000D+00
     23  0.904351D-03  0.000000D+00 -0.228177D-03 -0.532375D-03  0.000000D+00
     24  0.000000D+00  0.315460D-02  0.000000D+00  0.000000D+00 -0.550712D-03
               16            17            18            19            20 
     16  0.884044D+00
     17  0.139300D-01  0.845390D+00
     18  0.000000D+00  0.000000D+00  0.622135D-01
     19 -0.798374D-01 -0.292827D-01  0.000000D+00  0.707905D-01
     20 -0.277289D-01 -0.430681D+00  0.000000D+00  0.370590D-01  0.446520D+00
     21  0.000000D+00  0.000000D+00 -0.184302D-01  0.000000D+00  0.000000D+00
     22 -0.328202D+00  0.170205D+00  0.000000D+00  0.102998D-01 -0.512577D-02
     23  0.174107D+00 -0.190107D+00  0.000000D+00  0.277976D-01 -0.897156D-02
     24  0.000000D+00  0.000000D+00 -0.118560D-01  0.000000D+00  0.000000D+00
               21            22            23            24 
     21  0.151735D-01
     22  0.000000D+00  0.342372D+00
     23  0.000000D+00 -0.177261D+00  0.183837D+00
     24 -0.118613D-02  0.000000D+00  0.000000D+00  0.150490D-01
 Force constants in internal coordinates: 
                1             2             3             4             5 
      1  0.359283D+00
      2  0.578228D-02  0.591417D+00
      3  0.578228D-02  0.574733D-01  0.591417D+00
      4  0.570250D-03  0.557364D-02 -0.601814D-02  0.457269D+00
      5 -0.146368D-02  0.865049D-02 -0.367616D-02 -0.137824D-03  0.450124D+00
      6 -0.146368D-02 -0.367616D-02  0.865049D-02  0.476640D-03  0.865654D-03
      7  0.570250D-03 -0.601814D-02  0.557364D-02  0.310944D-03  0.476640D-03
      8  0.344747D-02  0.807550D-02 -0.324071D-01 -0.231881D-02  0.366319D-02
      9  0.344747D-02 -0.324071D-01  0.807550D-02  0.669825D-03  0.880423D-03
     10 -0.689494D-02  0.243316D-01  0.243316D-01  0.164899D-02 -0.454361D-02
     11 -0.138371D-02  0.165542D-01  0.364953D-02  0.187566D-02 -0.800450D-02
     12  0.174607D-02  0.766350D-02 -0.103573D-02 -0.701169D-02  0.209296D-02
     13 -0.362356D-03 -0.242177D-01 -0.261380D-02  0.513603D-02  0.591154D-02
     14  0.174607D-02 -0.103573D-02  0.766350D-02 -0.156451D-03  0.917086D-03
     15 -0.138371D-02  0.364953D-02  0.165542D-01  0.168606D-03 -0.741507D-03
     16 -0.362356D-03 -0.261380D-02 -0.242177D-01 -0.121550D-04 -0.175579D-03
     17  0.000000D+00  0.000000D+00  0.000000D+00  0.000000D+00  0.000000D+00
     18  0.000000D+00  0.000000D+00  0.000000D+00  0.000000D+00  0.000000D+00
     19  0.000000D+00  0.000000D+00  0.000000D+00  0.000000D+00  0.000000D+00
     20  0.000000D+00  0.000000D+00  0.000000D+00  0.000000D+00  0.000000D+00
     21  0.000000D+00  0.000000D+00  0.000000D+00  0.000000D+00  0.000000D+00
     22  0.000000D+00  0.000000D+00  0.000000D+00  0.000000D+00  0.000000D+00
     23  0.000000D+00  0.000000D+00  0.000000D+00  0.000000D+00  0.000000D+00
     24  0.000000D+00  0.000000D+00  0.000000D+00  0.000000D+00  0.000000D+00
                6             7             8             9            10 
      6  0.450124D+00
      7 -0.137824D-03  0.457269D+00
      8  0.880423D-03  0.669825D-03  0.109670D+00
      9  0.366319D-02 -0.231881D-02 -0.354458D-01  0.109670D+00
     10 -0.454361D-02  0.164899D-02 -0.742245D-01 -0.742245D-01  0.148449D+00
     11 -0.741507D-03  0.168606D-03 -0.860101D-02 -0.385294D-02  0.124540D-01
     12  0.917086D-03 -0.156451D-03  0.981896D-02 -0.361345D-03 -0.945761D-02
     13 -0.175579D-03 -0.121550D-04 -0.121795D-02  0.421429D-02 -0.299634D-02
     14  0.209296D-02 -0.701169D-02 -0.361345D-03  0.981896D-02 -0.945761D-02
     15 -0.800450D-02  0.187566D-02 -0.385294D-02 -0.860101D-02  0.124540D-01
     16  0.591154D-02  0.513603D-02  0.421429D-02 -0.121795D-02 -0.299634D-02
     17  0.000000D+00  0.000000D+00  0.000000D+00  0.000000D+00  0.000000D+00
     18  0.000000D+00  0.000000D+00  0.000000D+00  0.000000D+00  0.000000D+00
     19  0.000000D+00  0.000000D+00  0.000000D+00  0.000000D+00  0.000000D+00
     20  0.000000D+00  0.000000D+00  0.000000D+00  0.000000D+00  0.000000D+00
     21  0.000000D+00  0.000000D+00  0.000000D+00  0.000000D+00  0.000000D+00
     22  0.000000D+00  0.000000D+00  0.000000D+00  0.000000D+00  0.000000D+00
     23  0.000000D+00  0.000000D+00  0.000000D+00  0.000000D+00  0.000000D+00
     24  0.000000D+00  0.000000D+00  0.000000D+00  0.000000D+00  0.000000D+00
               11            12            13            14            15 
     11  0.856155D-01
     12 -0.457696D-01  0.837497D-01
     13 -0.398459D-01 -0.379801D-01  0.778260D-01
     14 -0.166488D-02  0.248425D-02 -0.819374D-03  0.837497D-01
     15  0.220610D-02 -0.166488D-02 -0.541221D-03 -0.457696D-01  0.856155D-01
     16 -0.541221D-03 -0.819374D-03  0.136060D-02 -0.379801D-01 -0.398459D-01
     17  0.000000D+00  0.000000D+00  0.000000D+00  0.000000D+00  0.000000D+00
     18  0.000000D+00  0.000000D+00  0.000000D+00  0.000000D+00  0.000000D+00
     19  0.000000D+00  0.000000D+00  0.000000D+00  0.000000D+00  0.000000D+00
     20  0.000000D+00  0.000000D+00  0.000000D+00  0.000000D+00  0.000000D+00
     21  0.000000D+00  0.000000D+00  0.000000D+00  0.000000D+00  0.000000D+00
     22  0.000000D+00  0.000000D+00  0.000000D+00  0.000000D+00  0.000000D+00
     23  0.000000D+00  0.000000D+00  0.000000D+00  0.000000D+00  0.000000D+00
     24  0.000000D+00  0.000000D+00  0.000000D+00  0.000000D+00  0.000000D+00
               16            17            18            19            20 
     16  0.778260D-01
     17  0.000000D+00  0.102618D-01
     18  0.000000D+00  0.481934D-02  0.137080D-01
     19  0.000000D+00  0.371586D-02 -0.565429D-02  0.161082D-01
     20  0.000000D+00 -0.172662D-02  0.323441D-02  0.673804D-02  0.116991D-01
     21  0.000000D+00 -0.414282D-02 -0.581386D-02  0.633081D-02  0.465977D-02
     22  0.000000D+00 -0.397749D-02 -0.414282D-02  0.256848D-02  0.240314D-02
     23  0.000000D+00  0.240314D-02  0.465977D-02 -0.606152D-02 -0.380489D-02
     24  0.000000D+00  0.256848D-02  0.633081D-02 -0.982386D-02 -0.606152D-02
               21            22            23            24 
     21  0.137080D-01
     22  0.481934D-02  0.102618D-01
     23  0.323441D-02 -0.172662D-02  0.116991D-01
     24 -0.565429D-02  0.371586D-02  0.673804D-02  0.161082D-01
 Leave Link  716 at Thu Feb 26 00:36:23 2015, MaxMem= 1073741824 cpu:       0.5
 (Enter /apps/gaussian/g09_c01/g09/l103.exe)

 GradGradGradGradGradGradGradGradGradGradGradGradGradGradGradGradGradGrad
 Berny optimization.
 Red2BG is reusing G-inverse.
 Internal  Forces:  Max     0.013045321 RMS     0.004369389
 Search for a local minimum.
 Step number   1 out of a maximum of   34
 All quantities printed in internal units (Hartrees-Bohrs-Radians)
 RMS Force = .43694D-02 SwitMx=.10000D-02 MixMth= 1
 Mixed Optimization -- RFO/linear search
 Second derivative matrix not updated -- analytic derivatives used.
 ITU=  0
     Eigenvalues ---    0.01208   0.01311   0.01628   0.02071   0.04138
     Eigenvalues ---    0.11127   0.11635   0.12174   0.12674   0.14672
     Eigenvalues ---    0.22459   0.35980   0.44755   0.45169   0.45640
     Eigenvalues ---    0.45788   0.54274   0.65561
 RFO step:  Lambda=-7.80848778D-04 EMin= 1.20755882D-02
 Linear search not attempted -- first point.
 Iteration  1 RMS(Cart)=  0.01369264 RMS(Int)=  0.00001660
 Iteration  2 RMS(Cart)=  0.00001900 RMS(Int)=  0.00000000
 Iteration  3 RMS(Cart)=  0.00000000 RMS(Int)=  0.00000000
 ClnCor:  largest displacement from symmetrization is 8.47D-11 for atom     8.
 Variable       Old X    -DE/DX   Delta X   Delta X   Delta X     New X
                                 (Linear)    (Quad)   (Total)
    R1        2.05337  -0.00139   0.00000  -0.00333  -0.00333   2.05003
    R2        2.48365  -0.01305   0.00000  -0.01941  -0.01941   2.46424
    R3        2.48365  -0.01305   0.00000  -0.01941  -0.01941   2.46424
    R4        1.91586  -0.00518   0.00000  -0.01140  -0.01140   1.90446
    R5        1.91959  -0.00523   0.00000  -0.01153  -0.01153   1.90806
    R6        1.91959  -0.00523   0.00000  -0.01153  -0.01153   1.90806
    R7        1.91586  -0.00518   0.00000  -0.01140  -0.01140   1.90446
    A1        2.04681   0.00068   0.00000   0.00098   0.00098   2.04779
    A2        2.04681   0.00068   0.00000   0.00098   0.00098   2.04779
    A3        2.18957  -0.00137   0.00000  -0.00196  -0.00196   2.18761
    A4        2.09627  -0.00082   0.00000  -0.00386  -0.00386   2.09242
    A5        2.15059  -0.00044   0.00000  -0.00329  -0.00329   2.14730
    A6        2.03632   0.00126   0.00000   0.00715   0.00715   2.04347
    A7        2.15059  -0.00044   0.00000  -0.00329  -0.00329   2.14730
    A8        2.09627  -0.00082   0.00000  -0.00386  -0.00386   2.09242
    A9        2.03632   0.00126   0.00000   0.00715   0.00715   2.04347
    D1        0.00000   0.00000   0.00000   0.00000   0.00000   0.00000
    D2        3.14159   0.00000   0.00000   0.00000   0.00000   3.14159
    D3        3.14159   0.00000   0.00000   0.00000   0.00000   3.14159
    D4        0.00000   0.00000   0.00000   0.00000   0.00000   0.00000
    D5        3.14159   0.00000   0.00000   0.00000   0.00000   3.14159
    D6        0.00000   0.00000   0.00000   0.00000   0.00000   0.00000
    D7        0.00000   0.00000   0.00000   0.00000   0.00000   0.00000
    D8        3.14159   0.00000   0.00000   0.00000   0.00000   3.14159
         Item               Value     Threshold  Converged?
 Maximum Force            0.013045     0.000002     NO 
 RMS     Force            0.004369     0.000001     NO 
 Maximum Displacement     0.030923     0.000006     NO 
 RMS     Displacement     0.013685     0.000004     NO 
 Predicted change in Energy=-3.909913D-04
 GradGradGradGradGradGradGradGradGradGradGradGradGradGradGradGradGradGrad

 Leave Link  103 at Thu Feb 26 00:36:23 2015, MaxMem= 1073741824 cpu:       0.3
 (Enter /apps/gaussian/g09_c01/g09/l202.exe)
                          Input orientation:                          
 ---------------------------------------------------------------------
 Center     Atomic      Atomic             Coordinates (Angstroms)
 Number     Number       Type             X           Y           Z
 ---------------------------------------------------------------------
      1          6           0        0.000000    0.423605    0.000000
      2          1           0        0.000000    1.508436    0.000000
      3          7           0        1.158465   -0.175081    0.000000
      4          1           0        2.005739    0.370610    0.000000
      5          1           0        1.258778   -1.179786    0.000000
      6          7           0       -1.158465   -0.175081    0.000000
      7          1           0       -1.258778   -1.179786    0.000000
      8          1           0       -2.005739    0.370610    0.000000
 ---------------------------------------------------------------------
                    Distance matrix (angstroms):
                    1          2          3          4          5
     1  C    0.000000
     2  H    1.084831   0.000000
     3  N    1.304019   2.043593   0.000000
     4  H    2.006439   2.306000   1.007795   0.000000
     5  H    2.038476   2.968342   1.009700   1.720952   0.000000
     6  N    1.304019   2.043593   2.316931   3.210914   2.617727
     7  H    2.038476   2.968342   2.617727   3.613973   2.517556
     8  H    2.006439   2.306000   3.210914   4.011478   3.613973
                    6          7          8
     6  N    0.000000
     7  H    1.009700   0.000000
     8  H    1.007795   1.720952   0.000000
 Stoichiometry    CH5N2(1+)
 Framework group  C2V[C2(CH),SGV(H4N2)]
 Deg. of freedom     7
 Full point group                 C2V     NOp   4
 RotChk:  IX=0 Diff= 3.34D-16
 Largest Abelian subgroup         C2V     NOp   4
 Largest concise Abelian subgroup C2      NOp   2
                         Standard orientation:                         
 ---------------------------------------------------------------------
 Center     Atomic      Atomic             Coordinates (Angstroms)
 Number     Number       Type             X           Y           Z
 ---------------------------------------------------------------------
      1          6           0        0.000000    0.000000    0.424382
      2          1           0        0.000000    0.000000    1.509213
      3          7           0        0.000000    1.158465   -0.174304
      4          1           0        0.000000    2.005739    0.371387
      5          1           0        0.000000    1.258778   -1.179009
      6          7           0        0.000000   -1.158465   -0.174304
      7          1           0        0.000000   -1.258778   -1.179009
      8          1           0        0.000000   -2.005739    0.371387
 ---------------------------------------------------------------------
 Rotational constants (GHZ):     60.2554303     10.3374427      8.8236536
 Leave Link  202 at Thu Feb 26 00:36:23 2015, MaxMem= 1073741824 cpu:       0.0
 (Enter /apps/gaussian/g09_c01/g09/l301.exe)
 Standard basis: Aug-CC-pVTZ (5D, 7F)
 Ernie: Thresh=  0.10000D-02 Tol=  0.10000D-05 Strict=F.
 Ernie:  9 primitive shells out of 145 were deleted.
 There are    92 symmetry adapted basis functions of A1  symmetry.
 There are    37 symmetry adapted basis functions of A2  symmetry.
 There are    46 symmetry adapted basis functions of B1  symmetry.
 There are    78 symmetry adapted basis functions of B2  symmetry.
 Integral buffers will be    131072 words long.
 Raffenetti 2 integral format.
 Two-electron integral symmetry is turned on.
   253 basis functions,   351 primitive gaussians,   290 cartesian basis functions
    12 alpha electrons       12 beta electrons
       nuclear repulsion energy        80.0023355051 Hartrees.
 IExCor= 1009 DFT=T Ex+Corr=PBE1PBE ExCW=0 ScaHFX=  0.250000
 ScaDFX=  0.750000  0.750000  1.000000  1.000000 ScalE2=  1.000000  1.000000
 IRadAn=      5 IRanWt=     -1 IRanGd=            0 ICorTp=0
 NAtoms=    8 NActive=    8 NUniq=    5 SFac= 2.56D+00 NAtFMM=   60 NAOKFM=F Big=F
 Leave Link  301 at Thu Feb 26 00:36:23 2015, MaxMem= 1073741824 cpu:       0.3
 (Enter /apps/gaussian/g09_c01/g09/l302.exe)
 NPDir=0 NMtPBC=     1 NCelOv=     1 NCel=       1 NClECP=     1 NCelD=      1
         NCelK=      1 NCelE2=     1 NClLst=     1 CellRange=     0.0.
 One-electron integrals computed using PRISM.
 One-electron integral symmetry used in STVInt
 NBasis=   253 RedAO= T  NBF=    92    37    46    78
 NBsUse=   253 1.00D-06 NBFU=    92    37    46    78
 Precomputing XC quadrature grid using
 IXCGrd= 2 IRadAn=           5 IRanWt=          -1 IRanGd=           0 AccXCQ= 0.00D+00.
 NRdTot=     686 NPtTot=      184860 NUsed=      189779 NTot=      189811
 NSgBfM=   290   290   290   290   290 NAtAll=     8     8.
 Leave Link  302 at Thu Feb 26 00:36:24 2015, MaxMem= 1073741824 cpu:       1.8
 (Enter /apps/gaussian/g09_c01/g09/l303.exe)
 DipDrv:  MaxL=1.
 Leave Link  303 at Thu Feb 26 00:36:24 2015, MaxMem= 1073741824 cpu:       0.2
 (Enter /apps/gaussian/g09_c01/g09/l401.exe)
 Initial guess read from the read-write file.
 B after Tr=     0.000000    0.000000    0.000000
         Rot=    1.000000    0.000000    0.000000    0.000000 Ang=   0.00 deg.
 Guess basis will be translated and rotated to current coordinates.
 Initial guess orbital symmetries:
       Occupied  (B2) (A1) (A1) (A1) (B2) (A1) (A1) (B2) (B2) (A1)
                 (B1) (A2)
       Virtual   (B1) (A1) (A1) (B2) (B1) (A1) (B2) (A1) (B2) (A1)
                 (A2) (B1) (A1) (B2) (A1) (B2) (A1) (B2) (B1) (A1)
                 (A2) (A1) (B2) (B2) (B1) (A1) (A1) (B1) (A1) (B2)
                 (A2) (B2) (A1) (A1) (B1) (A2) (A1) (B2) (A1) (B2)
                 (A1) (B2) (B2) (B1) (A1) (A2) (B2) (B1) (A1) (B2)
                 (B1) (A2) (A1) (B2) (A1) (B2) (A1) (A1) (A1) (B1)
                 (B2) (A2) (A1) (B2) (B1) (A1) (A2) (B2) (A1) (B1)
                 (A2) (B2) (B1) (A1) (B2) (A1) (B1) (B2) (A1) (A2)
                 (A1) (B1) (B2) (A2) (A1) (B1) (B2) (A1) (A2) (A1)
                 (B2) (B2) (A2) (B2) (B1) (A1) (A2) (B2) (A1) (A1)
                 (B1) (B1) (B2) (B2) (A1) (A2) (A1) (B2) (B1) (B2)
                 (A1) (A1) (A2) (A1) (B1) (B2) (B2) (B1) (A2) (A1)
                 (B1) (B2) (A1) (A1) (A2) (A1) (B2) (B2) (A1) (A1)
                 (A2) (B1) (B2) (B1) (A1) (B2) (B2) (A2) (B1) (B2)
                 (B2) (A1) (A2) (A1) (A1) (B2) (B1) (B2) (A1) (A1)
                 (B1) (B2) (A1) (A2) (B2) (B1) (B1) (A1) (A2) (A1)
                 (B2) (A1) (A1) (B2) (A2) (B1) (A1) (B2) (A2) (A1)
                 (B2) (A1) (A2) (B1) (B1) (A2) (A1) (B1) (A2) (B2)
                 (B2) (B1) (A1) (A2) (A1) (B2) (A1) (B1) (B2) (B2)
                 (A1) (B1) (A1) (A2) (B1) (A1) (B2) (B2) (A2) (A1)
                 (B2) (B1) (A1) (B2) (B2) (A1) (A2) (B2) (B2) (B1)
                 (A1) (B1) (A1) (A2) (B1) (A1) (B2) (A1) (A2) (A2)
                 (B2) (B1) (B2) (A2) (A1) (B1) (B2) (A1) (B2) (A1)
                 (B2) (A1) (A1) (A1) (B2) (B2) (A1) (B2) (A1) (B2)
                 (A1)
 The electronic state of the initial guess is 1-A1.
 Generating alternative initial guess.
 Harris functional with IExCor= 1009 diagonalized for initial guess.
 ExpMin= 2.53D-02 ExpMax= 1.14D+04 ExpMxC= 3.89D+02 IAcc=3 IRadAn=         5 AccDes= 0.00D+00
 HarFok:  IExCor= 1009 AccDes= 0.00D+00 IRadAn=         5 IDoV= 1
 ScaDFX=  1.000000  1.000000  1.000000  1.000000
 FoFCou: FMM=F IPFlag=           0 FMFlag=      100000 FMFlg1=           0
         NFxFlg=           0 DoJE=T BraDBF=F KetDBF=T FulRan=T
         Omega=  0.000000  0.000000  1.000000  0.000000  0.000000 ICntrl=     500 IOpCl=  0
         NMat0=    1 NMatS0=    1 NMatT0=    0 NMatD0=    1 NMtDS0=    0 NMtDT0=    0
         I1Cent=           4 NGrid=           0.
 Petite list used in FoFCou.
 Harris En= -150.346569758947    
 Leave Link  401 at Thu Feb 26 00:36:24 2015, MaxMem= 1073741824 cpu:       6.0
 (Enter /apps/gaussian/g09_c01/g09/l502.exe)
 Closed shell SCF:
 Requested convergence on RMS density matrix=1.00D-08 within 128 cycles.
 Requested convergence on MAX density matrix=1.00D-06.
 Requested convergence on             energy=1.00D-06.
 No special actions if energy rises.
 Using DIIS extrapolation, IDIIS=  1040.
 Integral symmetry usage will be decided dynamically.
       189694 words used for storage of precomputed grid.
 Keep R1 ints in memory in canonical form, NReq=903016134.
 IEnd=      465070 IEndB=      465070 NGot=  1073741824 MDV=   183147647
 LenX=   183147647 LenY=   183063106
 Symmetry not used in FoFDir.
 MinBra= 0 MaxBra= 3 Meth= 1.
 IRaf=       0 NMat=   1 IRICut=       1 DoRegI=T DoRafI=F ISym2E= 0 JSym2E=0.

 Cycle   1  Pass 1  IDiag  1:
 E= -150.270748057365    
 DIIS: error= 9.69D-04 at cycle   1 NSaved=   1.
 NSaved= 1 IEnMin= 1 EnMin= -150.270748057365     IErMin= 1 ErrMin= 9.69D-04
 ErrMax= 9.69D-04 EMaxC= 1.00D-01 BMatC= 1.59D-04 BMatP= 1.59D-04
 IDIUse=3 WtCom= 9.90D-01 WtEn= 9.69D-03
 Coeff-Com:  0.100D+01
 Coeff-En:   0.100D+01
 Coeff:      0.100D+01
 Gap=     0.310 Goal=   None    Shift=    0.000
 RMSDP=7.17D-05 MaxDP=1.94D-03              OVMax= 3.12D-03

 Cycle   2  Pass 1  IDiag  1:
 E= -150.270829575481     Delta-E=       -0.000081518116 Rises=F Damp=F
 DIIS: error= 4.03D-04 at cycle   2 NSaved=   2.
 NSaved= 2 IEnMin= 2 EnMin= -150.270829575481     IErMin= 2 ErrMin= 4.03D-04
 ErrMax= 4.03D-04 EMaxC= 1.00D-01 BMatC= 2.01D-05 BMatP= 1.59D-04
 IDIUse=3 WtCom= 9.96D-01 WtEn= 4.03D-03
 Coeff-Com:  0.183D+00 0.817D+00
 Coeff-En:   0.000D+00 0.100D+01
 Coeff:      0.183D+00 0.817D+00
 Gap=     0.299 Goal=   None    Shift=    0.000
 RMSDP=1.36D-05 MaxDP=5.08D-04 DE=-8.15D-05 OVMax= 1.47D-03

 Cycle   3  Pass 1  IDiag  1:
 E= -150.270838165280     Delta-E=       -0.000008589799 Rises=F Damp=F
 DIIS: error= 2.87D-04 at cycle   3 NSaved=   3.
 NSaved= 3 IEnMin= 3 EnMin= -150.270838165280     IErMin= 3 ErrMin= 2.87D-04
 ErrMax= 2.87D-04 EMaxC= 1.00D-01 BMatC= 9.20D-06 BMatP= 2.01D-05
 IDIUse=3 WtCom= 9.97D-01 WtEn= 2.87D-03
 Coeff-Com:  0.408D-02 0.403D+00 0.593D+00
 Coeff-En:   0.000D+00 0.311D+00 0.689D+00
 Coeff:      0.407D-02 0.402D+00 0.594D+00
 Gap=     0.300 Goal=   None    Shift=    0.000
 RMSDP=5.46D-06 MaxDP=2.08D-04 DE=-8.59D-06 OVMax= 6.25D-04

 Cycle   4  Pass 1  IDiag  1:
 E= -150.270845464226     Delta-E=       -0.000007298946 Rises=F Damp=F
 DIIS: error= 3.09D-05 at cycle   4 NSaved=   4.
 NSaved= 4 IEnMin= 4 EnMin= -150.270845464226     IErMin= 4 ErrMin= 3.09D-05
 ErrMax= 3.09D-05 EMaxC= 1.00D-01 BMatC= 1.16D-07 BMatP= 9.20D-06
 IDIUse=1 WtCom= 1.00D+00 WtEn= 0.00D+00
 Coeff-Com: -0.945D-03 0.140D+00 0.233D+00 0.628D+00
 Coeff:     -0.945D-03 0.140D+00 0.233D+00 0.628D+00
 Gap=     0.299 Goal=   None    Shift=    0.000
 RMSDP=8.14D-07 MaxDP=4.81D-05 DE=-7.30D-06 OVMax= 1.82D-04

 Cycle   5  Pass 1  IDiag  1:
 E= -150.270845538273     Delta-E=       -0.000000074048 Rises=F Damp=F
 DIIS: error= 1.48D-05 at cycle   5 NSaved=   5.
 NSaved= 5 IEnMin= 5 EnMin= -150.270845538273     IErMin= 5 ErrMin= 1.48D-05
 ErrMax= 1.48D-05 EMaxC= 1.00D-01 BMatC= 1.97D-08 BMatP= 1.16D-07
 IDIUse=1 WtCom= 1.00D+00 WtEn= 0.00D+00
 Coeff-Com: -0.813D-03 0.374D-02 0.203D-01 0.310D+00 0.667D+00
 Coeff:     -0.813D-03 0.374D-02 0.203D-01 0.310D+00 0.667D+00
 Gap=     0.299 Goal=   None    Shift=    0.000
 RMSDP=2.69D-07 MaxDP=1.56D-05 DE=-7.40D-08 OVMax= 5.46D-05

 Cycle   6  Pass 1  IDiag  1:
 E= -150.270845555659     Delta-E=       -0.000000017385 Rises=F Damp=F
 DIIS: error= 7.59D-07 at cycle   6 NSaved=   6.
 NSaved= 6 IEnMin= 6 EnMin= -150.270845555659     IErMin= 6 ErrMin= 7.59D-07
 ErrMax= 7.59D-07 EMaxC= 1.00D-01 BMatC= 7.60D-11 BMatP= 1.97D-08
 IDIUse=1 WtCom= 1.00D+00 WtEn= 0.00D+00
 Coeff-Com: -0.167D-03-0.102D-02 0.126D-02 0.539D-01 0.144D+00 0.802D+00
 Coeff:     -0.167D-03-0.102D-02 0.126D-02 0.539D-01 0.144D+00 0.802D+00
 Gap=     0.299 Goal=   None    Shift=    0.000
 RMSDP=2.19D-08 MaxDP=6.94D-07 DE=-1.74D-08 OVMax= 2.99D-06

 Cycle   7  Pass 1  IDiag  1:
 E= -150.270845555723     Delta-E=       -0.000000000064 Rises=F Damp=F
 DIIS: error= 9.92D-08 at cycle   7 NSaved=   7.
 NSaved= 7 IEnMin= 7 EnMin= -150.270845555723     IErMin= 7 ErrMin= 9.92D-08
 ErrMax= 9.92D-08 EMaxC= 1.00D-01 BMatC= 1.24D-12 BMatP= 7.60D-11
 IDIUse=1 WtCom= 1.00D+00 WtEn= 0.00D+00
 Coeff-Com: -0.491D-07-0.364D-03-0.648D-03-0.110D-02 0.490D-03 0.917D-01
 Coeff-Com:  0.910D+00
 Coeff:     -0.491D-07-0.364D-03-0.648D-03-0.110D-02 0.490D-03 0.917D-01
 Coeff:      0.910D+00
 Gap=     0.299 Goal=   None    Shift=    0.000
 RMSDP=3.46D-09 MaxDP=1.19D-07 DE=-6.38D-11 OVMax= 3.94D-07

 SCF Done:  E(RPBE1PBE) =  -150.270845556     A.U. after    7 cycles
             Convg  =    0.3461D-08             -V/T =  2.0058
 KE= 1.494017362650D+02 PE=-5.037860502152D+02 EE= 1.241111328893D+02
 Leave Link  502 at Thu Feb 26 00:36:51 2015, MaxMem= 1073741824 cpu:     209.1
 (Enter /apps/gaussian/g09_c01/g09/l801.exe)
 Range of M.O.s used for correlation:     1   253
 NBasis=   253 NAE=    12 NBE=    12 NFC=     0 NFV=     0
 NROrb=    253 NOA=    12 NOB=    12 NVA=   241 NVB=   241

 **** Warning!!: The largest alpha MO coefficient is  0.47735301D+02

 Leave Link  801 at Thu Feb 26 00:36:51 2015, MaxMem= 1073741824 cpu:       0.1
 (Enter /apps/gaussian/g09_c01/g09/l1002.exe)
 Minotr:  Closed shell wavefunction.
          Direct CPHF calculation.
          Differentiating once with respect to electric field.
                with respect to dipole field.
          Electric field/nuclear overlap derivatives assumed to be zero.
          Using symmetry in CPHF.
          Requested convergence is 1.0D-08 RMS, and 1.0D-07 maximum.
          Secondary convergence is 1.0D-12 RMS, and 1.0D-12 maximum.
          NewPWx=F KeepS1=T KeepF1=T KeepIn=T MapXYZ=F SortEE=F KeepMc=T.
          MDV=    1073741756 using IRadAn=       1.
 Generate precomputed XC quadrature information.
          Keep R1 ints in memory in canonical form, NReq=892175092.
 Symmetry not used in FoFDir.
 MinBra= 0 MaxBra= 3 Meth= 1.
 IRaf=       0 NMat=   1 IRICut=       1 DoRegI=T DoRafI=F ISym2E= 0 JSym2E=0.
          Solving linear equations simultaneously, MaxMat=       0.
          There are     3 degrees of freedom in the 1st order CPHF.  IDoFFX=0.
      3 vectors produced by pass  0 Test12= 9.64D-14 3.33D-08 XBig12= 2.98D+01 4.57D+00.
 AX will form     3 AO Fock derivatives at one time.
      3 vectors produced by pass  1 Test12= 9.64D-14 3.33D-08 XBig12= 7.93D+00 8.52D-01.
      3 vectors produced by pass  2 Test12= 9.64D-14 3.33D-08 XBig12= 8.27D-01 2.90D-01.
      3 vectors produced by pass  3 Test12= 9.64D-14 3.33D-08 XBig12= 1.90D-02 3.24D-02.
      3 vectors produced by pass  4 Test12= 9.64D-14 3.33D-08 XBig12= 8.64D-04 6.31D-03.
      3 vectors produced by pass  5 Test12= 9.64D-14 3.33D-08 XBig12= 1.57D-04 3.44D-03.
      3 vectors produced by pass  6 Test12= 9.64D-14 3.33D-08 XBig12= 4.81D-06 5.77D-04.
      3 vectors produced by pass  7 Test12= 9.64D-14 3.33D-08 XBig12= 9.90D-08 8.68D-05.
      2 vectors produced by pass  8 Test12= 9.64D-14 3.33D-08 XBig12= 8.80D-10 7.76D-06.
      2 vectors produced by pass  9 Test12= 9.64D-14 3.33D-08 XBig12= 1.43D-11 9.53D-07.
      1 vectors produced by pass 10 Test12= 9.64D-14 3.33D-08 XBig12= 1.08D-13 6.46D-08.
 Inverted reduced A of dimension    29 with in-core refinement.
 End of Minotr Frequency-dependent properties file   721 does not exist.
 End of Minotr Frequency-dependent properties file   722 does not exist.
 Leave Link 1002 at Thu Feb 26 00:37:59 2015, MaxMem= 1073741824 cpu:     541.0
 (Enter /apps/gaussian/g09_c01/g09/l1101.exe)
 Using compressed storage, NAtomX=     8.
 Will process   9 centers per pass.
 Leave Link 1101 at Thu Feb 26 00:37:59 2015, MaxMem= 1073741824 cpu:       2.1
 (Enter /apps/gaussian/g09_c01/g09/l1102.exe)
 Symmetrizing basis deriv contribution to polar:
 IMax=3 JMax=2 DiffMx= 0.00D+00
 Leave Link 1102 at Thu Feb 26 00:37:59 2015, MaxMem= 1073741824 cpu:       0.3
 (Enter /apps/gaussian/g09_c01/g09/l1110.exe)
 Forming Gx(P) for the SCF density, NAtomX=     8.
 Integral derivatives from FoFDir/FoFCou, PRISM(SPDF).
 Do as many integral derivatives as possible in FoFDir.
 G2DrvN: MDV=    1073741656.
 G2DrvN: will do     9 centers at a time, making    1 passes doing MaxLOS=3.
 Calling FoFCou, ICntrl=  3107 FMM=F I1Cent=   0 AccDes= 0.00D+00.
 FoFCou: FMM=F IPFlag=           0 FMFlag=      100000 FMFlg1=           0
         NFxFlg=           0 DoJE=F BraDBF=F KetDBF=F FulRan=T
         Omega=  0.000000  0.000000  1.000000  0.000000  0.000000 ICntrl=    3107 IOpCl=  0
         NMat0=    1 NMatS0=    1 NMatT0=    0 NMatD0=    4 NMtDS0=    3 NMtDT0=    0
         I1Cent=           0 NGrid=           0.
 Petite list used in FoFCou.
 FoFDir/FoFCou used for L=0 through L=3.
 End of G2Drv Frequency-dependent properties file   721 does not exist.
 End of G2Drv Frequency-dependent properties file   722 does not exist.
 Leave Link 1110 at Thu Feb 26 00:38:41 2015, MaxMem= 1073741824 cpu:     334.3
 (Enter /apps/gaussian/g09_c01/g09/l1002.exe)
 Minotr:  Closed shell wavefunction.
          IDoAtm=11111111
          Direct CPHF calculation.
          Differentiating once with respect to electric field.
                with respect to dipole field.
          Differentiating once with respect to nuclear coordinates.
          Using symmetry in CPHF.
          Requested convergence is 1.0D-08 RMS, and 1.0D-07 maximum.
          Secondary convergence is 1.0D-12 RMS, and 1.0D-12 maximum.
          NewPWx=T KeepS1=F KeepF1=F KeepIn=T MapXYZ=F SortEE=F KeepMc=T.
          MDV=    1073741740 using IRadAn=       1.
 Generate precomputed XC quadrature information.
          Keep R1 ints in memory in canonical form, NReq=892175260.
 Symmetry not used in FoFDir.
 MinBra= 0 MaxBra= 3 Meth= 1.
 IRaf=       0 NMat=   1 IRICut=       1 DoRegI=T DoRafI=F ISym2E= 0 JSym2E=0.
          Solving linear equations simultaneously, MaxMat=       0.
          There are    18 degrees of freedom in the 1st order CPHF.  IDoFFX=4.
 Will reuse    3 saved solutions.
     15 vectors produced by pass  0 Test12= 1.61D-14 5.56D-09 XBig12= 1.39D-01 1.26D-01.
 AX will form    15 AO Fock derivatives at one time.
     15 vectors produced by pass  1 Test12= 1.61D-14 5.56D-09 XBig12= 3.81D-02 1.13D-01.
     15 vectors produced by pass  2 Test12= 1.61D-14 5.56D-09 XBig12= 4.72D-04 3.81D-03.
     15 vectors produced by pass  3 Test12= 1.61D-14 5.56D-09 XBig12= 4.58D-06 3.82D-04.
     15 vectors produced by pass  4 Test12= 1.61D-14 5.56D-09 XBig12= 4.21D-08 4.42D-05.
     15 vectors produced by pass  5 Test12= 1.61D-14 5.56D-09 XBig12= 8.55D-11 1.83D-06.
      5 vectors produced by pass  6 Test12= 1.61D-14 5.56D-09 XBig12= 1.32D-13 6.67D-08.
 Inverted reduced A of dimension    95 with in-core refinement.
 FullF1:  Do perturbations    1 to    18.
 Isotropic polarizability for W=    0.000000       26.46 Bohr**3.
 FullF1:  Do perturbations    1 to     6.
 End of Minotr Frequency-dependent properties file   721 does not exist.
 End of Minotr Frequency-dependent properties file   722 does not exist.
 Leave Link 1002 at Thu Feb 26 00:40:24 2015, MaxMem= 1073741824 cpu:     819.9
 (Enter /apps/gaussian/g09_c01/g09/l701.exe)
 Compute integral second derivatives.
 ... and contract with generalized density number  0.
 Leave Link  701 at Thu Feb 26 00:40:24 2015, MaxMem= 1073741824 cpu:       2.3
 (Enter /apps/gaussian/g09_c01/g09/l702.exe)
 L702 exits ... SP integral derivatives will be done elsewhere.
 Leave Link  702 at Thu Feb 26 00:40:24 2015, MaxMem= 1073741824 cpu:       0.1
 (Enter /apps/gaussian/g09_c01/g09/l703.exe)
 Compute integral second derivatives, UseDBF=F ICtDFT=           0.
 Integral derivatives from FoFDir, PRISM(SPDF).
 Calling FoFJK, ICntrl=    100127 FMM=F ISym2X=1 I1Cent= 0 IOpClX= 0 NMat=1 NMatS=1 NMatT=0.
 FoFCou: FMM=F IPFlag=           0 FMFlag=      100000 FMFlg1=         800
         NFxFlg=           0 DoJE=F BraDBF=F KetDBF=F FulRan=T
         Omega=  0.000000  0.000000  1.000000  0.000000  0.000000 ICntrl=  100127 IOpCl=  0
         NMat0=    1 NMatS0=    1 NMatT0=    0 NMatD0=    1 NMtDS0=    0 NMtDT0=    0
         I1Cent=           0 NGrid=           0.
 Petite list used in FoFCou.
 Leave Link  703 at Thu Feb 26 00:41:23 2015, MaxMem= 1073741824 cpu:     468.6
 (Enter /apps/gaussian/g09_c01/g09/l716.exe)
 Dipole        =-8.06421706D-17 6.43040309D-15-8.43681413D-02
 Polarizability= 1.80518718D+01-3.89106281D-13 3.66617587D+01
                 7.45279599D-13-1.53519515D-12 2.46637062D+01
 HyperPolar    =-4.99831807D-10 2.99451248D-11-2.97608444D-11
                 4.86652743D-11 1.56700128D-01-2.22632217D-11
                 2.78771370D+01-5.14370735D-11-1.18138142D-11
                -5.86598687D+00
 ***** Axes restored to original set *****
 -------------------------------------------------------------------
 Center     Atomic                   Forces (Hartrees/Bohr)
 Number     Number              X              Y              Z
 -------------------------------------------------------------------
      1        6           0.000000000    0.000313953    0.000000000
      2        1           0.000000000    0.000007541    0.000000000
      3        7           0.000262573   -0.000113840    0.000000000
      4        1           0.000082184    0.000045952    0.000000000
      5        1           0.000011998   -0.000092859    0.000000000
      6        7          -0.000262573   -0.000113840    0.000000000
      7        1          -0.000011998   -0.000092859    0.000000000
      8        1          -0.000082184    0.000045952    0.000000000
 -------------------------------------------------------------------
 Cartesian Forces:  Max     0.000313953 RMS     0.000111373
 Force constants in Cartesian coordinates: 
                1             2             3             4             5 
      1  0.963938D+00
      2  0.000000D+00  0.844679D+00
      3  0.000000D+00  0.000000D+00  0.170345D+00
      4 -0.636291D-01  0.000000D+00  0.000000D+00  0.699399D-01
      5  0.000000D+00 -0.346896D+00  0.000000D+00  0.000000D+00  0.362643D+00
      6  0.000000D+00  0.000000D+00 -0.550040D-01  0.000000D+00  0.000000D+00
      7 -0.424717D+00  0.164317D+00  0.000000D+00 -0.259692D-03  0.163283D-02
      8  0.149872D+00 -0.255099D+00  0.000000D+00  0.356280D-01 -0.102427D-01
      9  0.000000D+00  0.000000D+00 -0.531743D-01  0.000000D+00  0.000000D+00
     10 -0.279236D-01 -0.175185D-01  0.000000D+00  0.118802D-02  0.152959D-03
     11  0.167656D-01  0.160224D-01  0.000000D+00  0.102567D-02  0.779502D-03
     12  0.000000D+00  0.000000D+00 -0.599300D-02  0.000000D+00  0.000000D+00
     13  0.248589D-02  0.372624D-01  0.000000D+00 -0.408370D-02  0.976000D-03
     14  0.801199D-02 -0.981464D-02  0.000000D+00  0.993135D-03  0.158947D-02
     15  0.000000D+00  0.000000D+00  0.149685D-02  0.000000D+00  0.000000D+00
     16 -0.424717D+00 -0.164317D+00  0.000000D+00 -0.259692D-03 -0.163283D-02
     17 -0.149872D+00 -0.255099D+00  0.000000D+00 -0.356280D-01 -0.102427D-01
     18  0.000000D+00  0.000000D+00 -0.531743D-01  0.000000D+00  0.000000D+00
[...]
 
     33  33           3                                                1  1  1      11       1 1 1                                   
     66  55           2                                                7  6  6      43       1 0 0          7  66 55                 
     99  87           1                                                9  9  1      28       3 8 3          2  20 51                 
     43  61           4                                                1  3  7      35       6 8 7          6  85 08                 
 
     XX  XX           X                                                X  X  X      XX       X X X          X   X  X                 
     XX  X            X                                                             X        X                                       
     XX  X            X                                                                                                              
     X   X            X                                                                                                              
         X            X                                                                                                              
         X            X                                                                                                              
         X            X                                                                                                              
         X                                                                                                                           
         X                                                                                                                           
         X                                                                                                                           
         X                                                                                                                           
         X                                                                                                                           
         X                                                                                                                           
         X                                                                                                                           
         X                                                                                                                           
         X                                                                                                                           
         X                                                                                                                           
         X                                                                                                                           
         X                                                                                                                           
         X                                                                                                                           
 
 ***** Axes restored to original set *****
 -------------------------------------------------------------------
 Center     Atomic                   Forces (Hartrees/Bohr)
 Number     Number              X              Y              Z
 -------------------------------------------------------------------
      1        6           0.000000000    0.000000000    0.000000000
      2        1           0.000000000    0.000000059    0.000000000
      3        7           0.000000294   -0.000000148    0.000000000
      4        1          -0.000000084   -0.000000030    0.000000000
      5        1          -0.000000042    0.000000149    0.000000000
      6        7          -0.000000294   -0.000000148    0.000000000
      7        1           0.000000042    0.000000149    0.000000000
      8        1           0.000000084   -0.000000030    0.000000000
 -------------------------------------------------------------------
 Cartesian Forces:  Max     0.000000294 RMS     0.000000109
 Force constants in Cartesian coordinates: 
                1             2             3             4             5 
      1  0.962253D+00
      2  0.000000D+00  0.844330D+00
      3  0.000000D+00  0.000000D+00  0.170484D+00
      4 -0.636118D-01  0.000000D+00  0.000000D+00  0.699191D-01
      5  0.000000D+00 -0.346927D+00  0.000000D+00  0.000000D+00  0.362647D+00
      6  0.000000D+00  0.000000D+00 -0.549793D-01  0.000000D+00  0.000000D+00
      7 -0.423902D+00  0.163875D+00  0.000000D+00 -0.255661D-03  0.162693D-02
      8  0.149413D+00 -0.254921D+00  0.000000D+00  0.356132D-01 -0.102271D-01
      9  0.000000D+00  0.000000D+00 -0.532361D-01  0.000000D+00  0.000000D+00
     10 -0.279053D-01 -0.175103D-01  0.000000D+00  0.118682D-02  0.154395D-03
     11  0.167559D-01  0.160181D-01  0.000000D+00  0.102359D-02  0.778662D-03
     12  0.000000D+00  0.000000D+00 -0.599687D-02  0.000000D+00  0.000000D+00
     13  0.248695D-02  0.372437D-01  0.000000D+00 -0.408481D-02  0.975552D-03
     14  0.800777D-02 -0.979917D-02  0.000000D+00  0.991811D-03  0.158844D-02
     15  0.000000D+00  0.000000D+00  0.148082D-02  0.000000D+00  0.000000D+00
     16 -0.423902D+00 -0.163875D+00  0.000000D+00 -0.255661D-03 -0.162693D-02
     17 -0.149413D+00 -0.254921D+00  0.000000D+00 -0.356132D-01 -0.102271D-01
     18  0.000000D+00  0.000000D+00 -0.532361D-01  0.000000D+00  0.000000D+00
     19  0.248695D-02 -0.372437D-01  0.000000D+00 -0.408481D-02 -0.975552D-03
     20 -0.800777D-02 -0.979917D-02  0.000000D+00 -0.991811D-03  0.158844D-02
     21  0.000000D+00  0.000000D+00  0.148082D-02  0.000000D+00  0.000000D+00
     22 -0.279053D-01  0.175103D-01  0.000000D+00  0.118682D-02 -0.154395D-03
     23 -0.167559D-01  0.160181D-01  0.000000D+00 -0.102359D-02  0.778662D-03
     24  0.000000D+00  0.000000D+00 -0.599687D-02  0.000000D+00  0.000000D+00
                6             7             8             9            10 
      6  0.317232D-01
      7  0.000000D+00  0.922923D+00
      8  0.000000D+00 -0.205259D-01  0.873274D+00
      9  0.791272D-02  0.000000D+00  0.000000D+00  0.558634D-01
     10  0.000000D+00 -0.338914D+00 -0.178407D+00  0.000000D+00  0.353878D+00
     11  0.000000D+00 -0.183027D+00 -0.195070D+00  0.000000D+00  0.185814D+00
     12 -0.419977D-02  0.000000D+00  0.000000D+00 -0.100885D-01  0.000000D+00
     13  0.000000D+00 -0.786720D-01  0.294446D-01  0.000000D+00  0.105360D-01
     14  0.000000D+00  0.283826D-01 -0.447464D+00  0.000000D+00  0.523173D-02
     15  0.791507D-02  0.000000D+00  0.000000D+00 -0.166536D-01  0.000000D+00
     16  0.000000D+00 -0.853267D-01 -0.110213D-01  0.000000D+00  0.203090D-02
     17  0.000000D+00  0.110213D-01  0.354237D-01  0.000000D+00  0.541597D-02
     18  0.791271D-02  0.000000D+00  0.000000D+00  0.141279D-01  0.000000D+00
     19  0.000000D+00  0.211651D-02  0.899824D-03  0.000000D+00 -0.119712D-03
     20  0.000000D+00  0.543801D-02  0.579493D-03  0.000000D+00 -0.215902D-03
     21  0.791507D-02  0.000000D+00  0.000000D+00 -0.399384D-02  0.000000D+00
     22  0.000000D+00  0.203090D-02 -0.541597D-02  0.000000D+00 -0.692880D-03
     23  0.000000D+00 -0.679095D-02 -0.159527D-02  0.000000D+00 -0.483116D-03
     24 -0.419977D-02  0.000000D+00  0.000000D+00  0.606797D-02  0.000000D+00
               11            12            13            14            15 
     11  0.188355D+00
     12  0.000000D+00  0.129248D-01
     13 -0.280732D-01  0.000000D+00  0.693846D-01
     14 -0.884734D-02  0.000000D+00 -0.379250D-01  0.463707D+00
     15  0.000000D+00 -0.127794D-02  0.000000D+00  0.000000D+00  0.129292D-01
     16  0.679095D-02  0.000000D+00  0.211651D-02 -0.543801D-02  0.000000D+00
     17 -0.159527D-02  0.000000D+00 -0.899824D-03  0.579493D-03  0.000000D+00
     18  0.000000D+00  0.606797D-02  0.000000D+00  0.000000D+00 -0.399384D-02
     19  0.232575D-03  0.000000D+00 -0.164761D-02  0.533227D-03  0.000000D+00
     20 -0.531183D-03  0.000000D+00 -0.533227D-03  0.766014D-03  0.000000D+00
     21  0.000000D+00 -0.593030D-03  0.000000D+00  0.000000D+00  0.193252D-03
     22  0.483116D-03  0.000000D+00 -0.119712D-03  0.215902D-03  0.000000D+00
     23  0.892098D-03  0.000000D+00 -0.232575D-03 -0.531183D-03  0.000000D+00
     24  0.000000D+00  0.316334D-02  0.000000D+00  0.000000D+00 -0.593030D-03
               16            17            18            19            20 
     16  0.922923D+00
     17  0.205259D-01  0.873274D+00
     18  0.000000D+00  0.000000D+00  0.558634D-01
     19 -0.786720D-01 -0.294446D-01  0.000000D+00  0.693846D-01
     20 -0.283826D-01 -0.447464D+00  0.000000D+00  0.379250D-01  0.463707D+00
     21  0.000000D+00  0.000000D+00 -0.166536D-01  0.000000D+00  0.000000D+00
     22 -0.338914D+00  0.178407D+00  0.000000D+00  0.105360D-01 -0.523173D-02
     23  0.183027D+00 -0.195070D+00  0.000000D+00  0.280732D-01 -0.884734D-02
     24  0.000000D+00  0.000000D+00 -0.100885D-01  0.000000D+00  0.000000D+00
               21            22            23            24 
     21  0.129292D-01
     22  0.000000D+00  0.353878D+00
     23  0.000000D+00 -0.185814D+00  0.188355D+00
     24 -0.127794D-02  0.000000D+00  0.000000D+00  0.129248D-01
 Red2BG is reusing G-inverse.
 Force constants in internal coordinates: 
                1             2             3             4             5 
      1  0.362647D+00
      2  0.605772D-02  0.629245D+00
      3  0.605773D-02  0.596204D-01  0.629245D+00
      4  0.551452D-03  0.587129D-02 -0.603472D-02  0.474523D+00
      5 -0.148368D-02  0.896610D-02 -0.372724D-02 -0.239586D-03  0.467313D+00
      6 -0.148368D-02 -0.372724D-02  0.896610D-02  0.464427D-03  0.880632D-03
      7  0.551453D-03 -0.603472D-02  0.587129D-02  0.311038D-03  0.464427D-03
      8  0.361679D-02  0.772022D-02 -0.334384D-01 -0.249108D-02  0.381027D-02
      9  0.361679D-02 -0.334384D-01  0.772022D-02  0.689428D-03  0.955239D-03
     10 -0.723359D-02  0.257182D-01  0.257182D-01  0.180165D-02 -0.476551D-02
     11 -0.144287D-02  0.170717D-01  0.375412D-02  0.215135D-02 -0.813836D-02
     12  0.179817D-02  0.776562D-02 -0.108646D-02 -0.713590D-02  0.235455D-02
     13 -0.355298D-03 -0.248373D-01 -0.266766D-02  0.498455D-02  0.578381D-02
     14  0.179817D-02 -0.108646D-02  0.776562D-02 -0.161369D-03  0.967130D-03
     15 -0.144287D-02  0.375412D-02  0.170717D-01  0.185062D-03 -0.770961D-03
     16 -0.355298D-03 -0.266766D-02 -0.248373D-01 -0.236930D-04 -0.196168D-03
     17  0.000000D+00  0.000000D+00  0.000000D+00  0.000000D+00  0.000000D+00
     18  0.000000D+00  0.000000D+00  0.000000D+00  0.000000D+00  0.000000D+00
     19  0.000000D+00  0.000000D+00  0.000000D+00  0.000000D+00  0.000000D+00
     20  0.000000D+00  0.000000D+00  0.000000D+00  0.000000D+00  0.000000D+00
     21  0.000000D+00  0.000000D+00  0.000000D+00  0.000000D+00  0.000000D+00
     22  0.000000D+00  0.000000D+00  0.000000D+00  0.000000D+00  0.000000D+00
     23  0.000000D+00  0.000000D+00  0.000000D+00  0.000000D+00  0.000000D+00
     24  0.000000D+00  0.000000D+00  0.000000D+00  0.000000D+00  0.000000D+00
                6             7             8             9            10 
      6  0.467313D+00
      7 -0.239585D-03  0.474523D+00
      8  0.955239D-03  0.689428D-03  0.111520D+00
      9  0.381027D-02 -0.249108D-02 -0.354043D-01  0.111520D+00
     10 -0.476551D-02  0.180165D-02 -0.761161D-01 -0.761161D-01  0.152232D+00
     11 -0.770962D-03  0.185062D-03 -0.851674D-02 -0.390994D-02  0.124267D-01
     12  0.967130D-03 -0.161369D-03  0.973220D-02 -0.329717D-03 -0.940249D-02
     13 -0.196168D-03 -0.236929D-04 -0.121546D-02  0.423966D-02 -0.302420D-02
     14  0.235455D-02 -0.713590D-02 -0.329717D-03  0.973220D-02 -0.940249D-02
     15 -0.813836D-02  0.215135D-02 -0.390994D-02 -0.851674D-02  0.124267D-01
     16  0.578381D-02  0.498455D-02  0.423966D-02 -0.121546D-02 -0.302420D-02
     17  0.000000D+00  0.000000D+00  0.000000D+00  0.000000D+00  0.000000D+00
     18  0.000000D+00  0.000000D+00  0.000000D+00  0.000000D+00  0.000000D+00
     19  0.000000D+00  0.000000D+00  0.000000D+00  0.000000D+00  0.000000D+00
     20  0.000000D+00  0.000000D+00  0.000000D+00  0.000000D+00  0.000000D+00
     21  0.000000D+00  0.000000D+00  0.000000D+00  0.000000D+00  0.000000D+00
     22  0.000000D+00  0.000000D+00  0.000000D+00  0.000000D+00  0.000000D+00
     23  0.000000D+00  0.000000D+00  0.000000D+00  0.000000D+00  0.000000D+00
     24  0.000000D+00  0.000000D+00  0.000000D+00  0.000000D+00  0.000000D+00
               11            12            13            14            15 
     11  0.870307D-01
     12 -0.468710D-01  0.849949D-01
     13 -0.401597D-01 -0.381238D-01  0.782836D-01
     14 -0.167778D-02  0.252321D-02 -0.845437D-03  0.849949D-01
     15  0.220183D-02 -0.167778D-02 -0.524057D-03 -0.468710D-01  0.870307D-01
     16 -0.524057D-03 -0.845438D-03  0.136949D-02 -0.381238D-01 -0.401597D-01
     17  0.000000D+00  0.000000D+00  0.000000D+00  0.000000D+00  0.000000D+00
     18  0.000000D+00  0.000000D+00  0.000000D+00  0.000000D+00  0.000000D+00
     19  0.000000D+00  0.000000D+00  0.000000D+00  0.000000D+00  0.000000D+00
     20  0.000000D+00  0.000000D+00  0.000000D+00  0.000000D+00  0.000000D+00
     21  0.000000D+00  0.000000D+00  0.000000D+00  0.000000D+00  0.000000D+00
     22  0.000000D+00  0.000000D+00  0.000000D+00  0.000000D+00  0.000000D+00
     23  0.000000D+00  0.000000D+00  0.000000D+00  0.000000D+00  0.000000D+00
     24  0.000000D+00  0.000000D+00  0.000000D+00  0.000000D+00  0.000000D+00
               16            17            18            19            20 
     16  0.782836D-01
     17  0.000000D+00  0.107125D-01
     18  0.000000D+00  0.468976D-02  0.140674D-01
     19  0.000000D+00  0.396688D-02 -0.594758D-02  0.166022D-01
     20  0.000000D+00 -0.205583D-02  0.343005D-02  0.668779D-02  0.121737D-01
     21  0.000000D+00 -0.423906D-02 -0.591602D-02  0.639828D-02  0.472133D-02
     22  0.000000D+00 -0.405689D-02 -0.423906D-02  0.268870D-02  0.250653D-02
     23  0.000000D+00  0.250653D-02  0.472133D-02 -0.623708D-02 -0.402229D-02
     24  0.000000D+00  0.268870D-02  0.639828D-02 -0.994666D-02 -0.623708D-02
               21            22            23            24 
     21  0.140674D-01
     22  0.468976D-02  0.107125D-01
     23  0.343005D-02 -0.205583D-02  0.121737D-01
     24 -0.594758D-02  0.396688D-02  0.668779D-02  0.166022D-01
 Leave Link  716 at Thu Feb 26 00:51:06 2015, MaxMem= 1073741824 cpu:       0.2
 (Enter /apps/gaussian/g09_c01/g09/l9999.exe)
 1\1\GINC-CX1-3-3-1\Freq\RPBE1PBE\Aug-CC-pVTZ\C1H5N2(1+)\JMF02\26-Feb-2
 015\0\\#p opt(VeryTight,CalcAll,Raman) Integral(Grid=UltraFine) PBE1PB
 E/AUG-cc-pVTZ\\Autjob by noodles.sh | Great noodly basis sets\\1,1\C,0
 .,0.4237035038,0.\H,0.,1.5085360506,0.\N,1.1587367201,-0.1751122626,0.
 \H,2.0060719456,0.3706758927,0.\H,1.2590393199,-1.1799204074,0.\N,-1.1
 587367201,-0.1751122626,0.\H,-1.2590393199,-1.1799204074,0.\H,-2.00607
 19456,0.3706758927,0.\\Version=EM64L-G09RevC.01\State=1-A1\HF=-150.270
 8458\RMSD=5.451e-09\RMSF=1.087e-07\ZeroPoint=0.0727965\Thermal=0.07653
 56\Dipole=0.,-0.0842702,0.\DipoleDeriv=1.9309503,0.,0.,0.,0.3923874,0.
 ,0.,0.,0.2924871,0.0916673,0.,0.,0.,0.144633,0.,0.,0.,0.1540164,-1.102
 758,0.0580852,0.,0.4629779,-0.2847391,0.,0.,0.,-0.378892,0.3929919,0.0
 556433,0.,0.1077045,0.2160497,0.,0.,0.,0.3266283,0.1984572,-0.060193,0
 .,-0.1167731,0.3001791,0.,0.,0.,0.3290119,-1.102758,-0.0580852,0.,-0.4
 629779,-0.2847391,0.,0.,0.,-0.378892,0.1984572,0.060193,0.,0.1167731,0
 .3001791,0.,0.,0.,0.3290119,0.3929919,-0.0556433,0.,-0.1077045,0.21604
 97,0.,0.,0.,0.3266283\Polar=36.6786858,0.,24.6696888,0.,0.,18.0562624\
 PolarDeriv=0.0000002,1.0511784,0.,0.,0.,0.0000001,5.6359717,0.,-3.6174
 674,0.,0.,1.4771923,0.,0.,0.,0.,1.3881645,0.,0.,0.8602836,0.,0.,0.,0.,
 0.9346084,0.,7.2749743,0.,0.,1.2612752,0.,0.,0.,0.,0.8446617,0.,3.0077
 471,-1.0953732,-0.3590445,0.,0.,1.6991961,-3.5848758,-0.3429092,2.9905
 646,0.,0.,-0.8604145,0.,0.,0.,3.5938682,-0.8279136,0.,6.6852145,1.1571
 602,1.673362,0.,0.,0.9153468,2.5770217,1.7724225,1.2698788,0.,0.,0.542
 7876,0.,0.,0.,0.3419828,0.2148606,0.,2.0047079,-1.0175181,0.4838336,0.
 ,0.,0.2092676,-2.2774359,2.1540928,-6.0891969,0.,0.,-1.0516068,0.,0.,0
 .,0.0609653,-0.5033602,0.,-3.0077471,-1.0953732,0.3590445,0.,0.,-1.699
 1961,-3.5848758,0.3429092,2.9905646,0.,0.,-0.8604145,0.,0.,0.,-3.59386
 82,-0.8279136,0.,-2.0047079,-1.0175181,-0.4838336,0.,0.,-0.2092676,-2.
 2774359,-2.1540928,-6.0891969,0.,0.,-1.0516068,0.,0.,0.,-0.0609653,-0.
 5033602,0.,-6.6852145,1.1571602,-1.673362,0.,0.,-0.9153468,2.5770217,-
 1.7724225,1.2698788,0.,0.,0.5427876,0.,0.,0.,-0.3419828,0.2148606,0.\H
 yperPolar=0.,27.9065968,0.,-5.8653568,0.,0.,0.,0.,0.1561348,0.\PG=C02V
  [C2(C1H1),SGV(H4N2)]\NImag=0\\0.96225282,0.,0.84433006,0.,0.,0.170483
 52,-0.06361182,0.,0.,0.06991912,0.,-0.34692662,0.,0.,0.36264671,0.,0.,
 -0.05497929,0.,0.,0.03172324,-0.42390220,0.16387509,0.,-0.00025566,0.0
 0162693,0.,0.92292287,0.14941255,-0.25492061,0.,0.03561317,-0.01022715
 ,0.,-0.02052592,0.87327389,0.,0.,-0.05323606,0.,0.,0.00791272,0.,0.,0.
 05586337,-0.02790525,-0.01751026,0.,0.00118682,0.00015439,0.,-0.338913
 76,-0.17840695,0.,0.35387786,0.01675589,0.01601807,0.,0.00102359,0.000
 77866,0.,-0.18302705,-0.19507034,0.,0.18581413,0.18835530,0.,0.,-0.005
 99687,0.,0.,-0.00419977,0.,0.,-0.01008851,0.,0.,0.01292481,0.00248695,
 0.03724373,0.,-0.00408481,0.00097555,0.,-0.07867195,0.02944458,0.,0.01
 053603,-0.02807320,0.,0.06938460,0.00800777,-0.00979917,0.,0.00099181,
 0.00158844,0.,0.02838261,-0.44746369,0.,0.00523173,-0.00884734,0.,-0.0
 3792503,0.46370744,0.,0.,0.00148082,0.,0.,0.00791507,0.,0.,-0.01665358
 ,0.,0.,-0.00127794,0.,0.,0.01292925,-0.42390219,-0.16387509,0.,-0.0002
 5566,-0.00162693,0.,-0.08532671,-0.01102128,0.,0.00203090,0.00679095,0
 .,0.00211651,-0.00543801,0.,0.92292287,-0.14941255,-0.25492061,0.,-0.0
 3561317,-0.01022715,0.,0.01102128,0.03542367,0.,0.00541597,-0.00159527
 ,0.,-0.00089982,0.00057949,0.,0.02052592,0.87327389,0.,0.,-0.05323606,
 0.,0.,0.00791271,0.,0.,0.01412794,0.,0.,0.00606797,0.,0.,-0.00399384,0
 .,0.,0.05586337,0.00248695,-0.03724373,0.,-0.00408481,-0.00097555,0.,0
 .00211651,0.00089982,0.,-0.00011971,0.00023258,0.,-0.00164761,0.000533
 23,0.,-0.07867195,-0.02944458,0.,0.06938460,-0.00800777,-0.00979917,0.
 ,-0.00099181,0.00158844,0.,0.00543801,0.00057949,0.,-0.00021590,-0.000
 53118,0.,-0.00053323,0.00076601,0.,-0.02838261,-0.44746369,0.,0.037925
 03,0.46370744,0.,0.,0.00148082,0.,0.,0.00791507,0.,0.,-0.00399384,0.,0
 .,-0.00059303,0.,0.,0.00019325,0.,0.,-0.01665358,0.,0.,0.01292925,-0.0
 2790525,0.01751025,0.,0.00118682,-0.00015439,0.,0.00203090,-0.00541597
 ,0.,-0.00069288,0.00048312,0.,-0.00011971,0.00021590,0.,-0.33891376,0.
 17840695,0.,0.01053603,-0.00523173,0.,0.35387786,-0.01675589,0.0160180
 7,0.,-0.00102359,0.00077866,0.,-0.00679095,-0.00159527,0.,-0.00048312,
 0.00089210,0.,-0.00023258,-0.00053118,0.,0.18302705,-0.19507034,0.,0.0
 2807320,-0.00884734,0.,-0.18581413,0.18835530,0.,0.,-0.00599687,0.,0.,
 -0.00419977,0.,0.,0.00606797,0.,0.,0.00316334,0.,0.,-0.00059303,0.,0.,
 -0.01008851,0.,0.,-0.00127794,0.,0.,0.01292481\\0.,0.,0.,0.,-0.0000000
 6,0.,-0.00000029,0.00000015,0.,0.00000008,0.00000003,0.,0.00000004,-0.
 00000015,0.,0.00000029,0.00000015,0.,-0.00000004,-0.00000015,0.,-0.000
 00008,0.00000003,0.\\\@


     SCHOPENHAUER'S LAW OF ENTROPY
 IF YOU PUT A SPOONFUL OF WINE IN A BARREL FULL
 OF SEWAGE, YOU GET SEWAGE.
 IF YOU PUT A SPOONFUL OF SEWAGE IN A BARREL FULL
 OF WINE, YOU GET SEWAGE.
 Job cpu time:  0 days  2 hours 37 minutes 45.3 seconds.
 File lengths (MBytes):  RWF=     53 Int=      0 D2E=      0 Chk=      5 Scr=      1
 Normal termination of Gaussian 09 at Thu Feb 26 00:51:06 2015.
