 Entering Gaussian System, Link 0=g03
 Input=FORMA_PBE1PBE_AUG-cc-pVQZ.com
 Output=FORMA_PBE1PBE_AUG-cc-pVQZ.log
 Initial command:
 /apps/gaussian/g09_c01/g09/l1.exe /tmp/pbs.8910285.cx1b/Gau-626.inp -scrdir=/tmp/pbs.8910285.cx1b/
 Entering Link 1 = /apps/gaussian/g09_c01/g09/l1.exe PID=       632.
  
 Copyright (c) 1988,1990,1992,1993,1995,1998,2003,2009,2011,
            Gaussian, Inc.  All Rights Reserved.
  
 This is part of the Gaussian(R) 09 program.  It is based on
 the Gaussian(R) 03 system (copyright 2003, Gaussian, Inc.),
 the Gaussian(R) 98 system (copyright 1998, Gaussian, Inc.),
 the Gaussian(R) 94 system (copyright 1995, Gaussian, Inc.),
 the Gaussian 92(TM) system (copyright 1992, Gaussian, Inc.),
 the Gaussian 90(TM) system (copyright 1990, Gaussian, Inc.),
 the Gaussian 88(TM) system (copyright 1988, Gaussian, Inc.),
 the Gaussian 86(TM) system (copyright 1986, Carnegie Mellon
 University), and the Gaussian 82(TM) system (copyright 1983,
 Carnegie Mellon University). Gaussian is a federally registered
 trademark of Gaussian, Inc.
  
 This software contains proprietary and confidential information,
 including trade secrets, belonging to Gaussian, Inc.
  
 This software is provided under written license and may be
 used, copied, transmitted, or stored only in accord with that
 written license.
  
 The following legend is applicable only to US Government
 contracts under FAR:
  
                    RESTRICTED RIGHTS LEGEND
  
 Use, reproduction and disclosure by the US Government is
 subject to restrictions as set forth in subparagraphs (a)
 and (c) of the Commercial Computer Software - Restricted
 Rights clause in FAR 52.227-19.
  
 Gaussian, Inc.
 340 Quinnipiac St., Bldg. 40, Wallingford CT 06492
  
  
 ---------------------------------------------------------------
 Warning -- This program may not be used in any manner that
 competes with the business of Gaussian, Inc. or will provide
 assistance to any competitor of Gaussian, Inc.  The licensee
 of this program is prohibited from giving any competitor of
 Gaussian, Inc. access to this program.  By using this program,
 the user acknowledges that Gaussian, Inc. is engaged in the
 business of creating and licensing software in the field of
 computational chemistry and represents and warrants to the
 licensee that it is not a competitor of Gaussian, Inc. and that
 it will not use this program in any manner prohibited above.
 ---------------------------------------------------------------
  

 Cite this work as:
 Gaussian 09, Revision C.01,
 M. J. Frisch, G. W. Trucks, H. B. Schlegel, G. E. Scuseria, 
 M. A. Robb, J. R. Cheeseman, G. Scalmani, V. Barone, B. Mennucci, 
 G. A. Petersson, H. Nakatsuji, M. Caricato, X. Li, H. P. Hratchian, 
 A. F. Izmaylov, J. Bloino, G. Zheng, J. L. Sonnenberg, M. Hada, 
 M. Ehara, K. Toyota, R. Fukuda, J. Hasegawa, M. Ishida, T. Nakajima, 
 Y. Honda, O. Kitao, H. Nakai, T. Vreven, J. A. Montgomery, Jr., 
 J. E. Peralta, F. Ogliaro, M. Bearpark, J. J. Heyd, E. Brothers, 
 K. N. Kudin, V. N. Staroverov, T. Keith, R. Kobayashi, J. Normand, 
 K. Raghavachari, A. Rendell, J. C. Burant, S. S. Iyengar, J. Tomasi, 
 M. Cossi, N. Rega, J. M. Millam, M. Klene, J. E. Knox, J. B. Cross, 
 V. Bakken, C. Adamo, J. Jaramillo, R. Gomperts, R. E. Stratmann, 
 O. Yazyev, A. J. Austin, R. Cammi, C. Pomelli, J. W. Ochterski, 
 R. L. Martin, K. Morokuma, V. G. Zakrzewski, G. A. Voth, 
 P. Salvador, J. J. Dannenberg, S. Dapprich, A. D. Daniels, 
 O. Farkas, J. B. Foresman, J. V. Ortiz, J. Cioslowski, 
 and D. J. Fox, Gaussian, Inc., Wallingford CT, 2010.
 
 ******************************************
 Gaussian 09:  EM64L-G09RevC.01 23-Sep-2011
                26-Feb-2015 
 ******************************************
 %Chk=FORMA_PBE1PBE_AUG-cc-pVQZ.chk
 %Mem=8Gb
 %nproc=8
 Will use up to    8 processors via shared memory.
 ----------------------------------------------------------------------
 #p opt(VeryTight,CalcAll,Raman) Integral(Grid=UltraFine) PBE1PBE/AUG-c
 c-pVQZ
 ----------------------------------------------------------------------
 1/7=1,10=4,14=-1,18=20,19=15,26=3,38=1/1,3;
 2/9=110,12=2,17=6,18=5,40=1/2;
 3/5=16,6=2,7=10,11=2,16=1,25=1,30=1,71=2,74=-13,75=-5/1,2,3;
 4//1;
 5/5=2,38=5/2;
 8/6=4,10=90,11=11/1;
 10/13=10,15=4/2;
 11/6=3,8=1,9=11,15=111,16=1/1,2,10;
 10/6=1/2;
 6/7=2,8=2,9=2,10=2,18=1,28=1/1;
 7/10=1,25=1/1,2,3,16;
 1/7=1,10=4,14=-1,18=20,19=15/3(3);
 2/9=110/2;
 7/8=1,9=1,25=1,44=-1/16;
 99//99;
 2/9=110/2;
 3/5=16,6=2,7=10,11=2,16=1,25=1,30=1,71=2,74=-13,75=-5/1,2,3;
 4/5=5,16=3/1;
 5/5=2,38=5/2;
 8/6=4,10=90,11=11/1;
 10/13=10,15=4/2;
 11/6=3,8=1,9=11,15=111,16=1/1,2,10;
 10/6=1/2;
 7/10=1,25=1/1,2,3,16;
 1/7=1,10=4,14=-1,18=20,19=15/3(-9);
 2/9=110/2;
 6/7=2,8=2,9=2,10=2,18=1,19=2,28=1/1;
 7/8=1,9=1,25=1,44=-1/16;
 99//99;
 Leave Link    1 at Thu Feb 26 00:28:52 2015, MaxMem= 1073741824 cpu:       0.3
 (Enter /apps/gaussian/g09_c01/g09/l101.exe)
 ----------------------------------------------
 Autjob by noodles.sh | Great noodly basis sets
 ----------------------------------------------
 Charge =  1 Multiplicity = 1
 Symbolic Z-Matrix:
 C                     0.        0.42727   0. 
 H                     0.        1.51386   0. 
 N                     1.16818  -0.17499   0. 
 H                     2.0221    0.37151   0. 
 H                     1.27341  -1.18533   0. 
 N                    -1.16818  -0.17499   0. 
 H                    -1.27341  -1.18533   0. 
 H                    -2.0221    0.37151   0. 
 
 NAtoms=      8 NQM=        0 NQMF=       0 NMMI=      8 NMMIF=      0
                NMic=       0 NMicF=      0.
                    Isotopes and Nuclear Properties:
 (Nuclear quadrupole moments (NQMom) in fm**2, nuclear magnetic moments (NMagM)
  in nuclear magnetons)

  Atom         1           2           3           4           5           6           7           8
 IAtWgt=          12           1          14           1           1          14           1           1
 AtmWgt=  12.0000000   1.0078250  14.0030740   1.0078250   1.0078250  14.0030740   1.0078250   1.0078250
 NucSpn=           0           1           2           1           1           2           1           1
 AtZEff=   0.0000000   0.0000000   0.0000000   0.0000000   0.0000000   0.0000000   0.0000000   0.0000000
 NQMom=    0.0000000   0.0000000   2.0440000   0.0000000   0.0000000   2.0440000   0.0000000   0.0000000
 NMagM=    0.0000000   2.7928460   0.4037610   2.7928460   2.7928460   0.4037610   2.7928460   2.7928460
 Leave Link  101 at Thu Feb 26 00:28:52 2015, MaxMem= 1073741824 cpu:       0.9
 (Enter /apps/gaussian/g09_c01/g09/l103.exe)

 GradGradGradGradGradGradGradGradGradGradGradGradGradGradGradGradGradGrad
 Berny optimization.
 Initialization pass.
                           ----------------------------
                           !    Initial Parameters    !
                           ! (Angstroms and Degrees)  !
 --------------------------                            --------------------------
 ! Name  Definition              Value          Derivative Info.                !
 --------------------------------------------------------------------------------
 ! R1    R(1,2)                  1.0866         calculate D2E/DX2 analytically  !
 ! R2    R(1,3)                  1.3143         calculate D2E/DX2 analytically  !
 ! R3    R(1,6)                  1.3143         calculate D2E/DX2 analytically  !
 ! R4    R(3,4)                  1.0138         calculate D2E/DX2 analytically  !
 ! R5    R(3,5)                  1.0158         calculate D2E/DX2 analytically  !
 ! R6    R(6,7)                  1.0158         calculate D2E/DX2 analytically  !
 ! R7    R(6,8)                  1.0138         calculate D2E/DX2 analytically  !
 ! A1    A(2,1,3)              117.2736         calculate D2E/DX2 analytically  !
 ! A2    A(2,1,6)              117.2736         calculate D2E/DX2 analytically  !
 ! A3    A(3,1,6)              125.4529         calculate D2E/DX2 analytically  !
 ! A4    A(1,3,4)              120.1077         calculate D2E/DX2 analytically  !
 ! A5    A(1,3,5)              123.2199         calculate D2E/DX2 analytically  !
 ! A6    A(4,3,5)              116.6724         calculate D2E/DX2 analytically  !
 ! A7    A(1,6,7)              123.2199         calculate D2E/DX2 analytically  !
 ! A8    A(1,6,8)              120.1077         calculate D2E/DX2 analytically  !
 ! A9    A(7,6,8)              116.6724         calculate D2E/DX2 analytically  !
 ! D1    D(2,1,3,4)              0.0            calculate D2E/DX2 analytically  !
 ! D2    D(2,1,3,5)            180.0            calculate D2E/DX2 analytically  !
 ! D3    D(6,1,3,4)            180.0            calculate D2E/DX2 analytically  !
 ! D4    D(6,1,3,5)              0.0            calculate D2E/DX2 analytically  !
 ! D5    D(2,1,6,7)            180.0            calculate D2E/DX2 analytically  !
 ! D6    D(2,1,6,8)              0.0            calculate D2E/DX2 analytically  !
 ! D7    D(3,1,6,7)              0.0            calculate D2E/DX2 analytically  !
 ! D8    D(3,1,6,8)            180.0            calculate D2E/DX2 analytically  !
 --------------------------------------------------------------------------------
 Trust Radius=3.00D-01 FncErr=1.00D-07 GrdErr=1.00D-06
 Number of steps in this run=     34 maximum allowed number of steps=    100.
 GradGradGradGradGradGradGradGradGradGradGradGradGradGradGradGradGradGrad

 Leave Link  103 at Thu Feb 26 00:28:52 2015, MaxMem= 1073741824 cpu:       0.0
 (Enter /apps/gaussian/g09_c01/g09/l202.exe)
                          Input orientation:                          
 ---------------------------------------------------------------------
 Center     Atomic      Atomic             Coordinates (Angstroms)
 Number     Number       Type             X           Y           Z
 ---------------------------------------------------------------------
      1          6           0        0.000000    0.427270    0.000000
      2          1           0        0.000000    1.513864    0.000000
      3          7           0        1.168180   -0.174990    0.000000
      4          1           0        2.022103    0.371511    0.000000
      5          1           0        1.273414   -1.185325    0.000000
      6          7           0       -1.168180   -0.174990    0.000000
      7          1           0       -1.273414   -1.185325    0.000000
      8          1           0       -2.022103    0.371511    0.000000
 ---------------------------------------------------------------------
                    Distance matrix (angstroms):
                    1          2          3          4          5
     1  C    0.000000
     2  H    1.086594   0.000000
     3  N    1.314291   2.053502   0.000000
     4  H    2.022872   2.322471   1.013828   0.000000
     5  H    2.054762   2.984494   1.015801   1.727505   0.000000
     6  N    1.314291   2.053502   2.336360   3.236753   2.642377
     7  H    2.054762   2.984494   2.642377   3.644746   2.546828
     8  H    2.022872   2.322471   3.236753   4.044206   3.644746
                    6          7          8
     6  N    0.000000
     7  H    1.015801   0.000000
     8  H    1.013828   1.727505   0.000000
 Stoichiometry    CH5N2(1+)
 Framework group  C2V[C2(CH),SGV(H4N2)]
 Deg. of freedom     7
 Full point group                 C2V     NOp   4
 Largest Abelian subgroup         C2V     NOp   4
 Largest concise Abelian subgroup C2      NOp   2
                         Standard orientation:                         
 ---------------------------------------------------------------------
 Center     Atomic      Atomic             Coordinates (Angstroms)
 Number     Number       Type             X           Y           Z
 ---------------------------------------------------------------------
      1          6           0        0.000000    0.000000    0.427270
      2          1           0        0.000000    0.000000    1.513864
      3          7           0        0.000000    1.168180   -0.174990
      4          1           0        0.000000    2.022103    0.371511
      5          1           0        0.000000    1.273414   -1.185325
      6          7           0        0.000000   -1.168180   -0.174990
      7          1           0        0.000000   -1.273414   -1.185325
      8          1           0        0.000000   -2.022103    0.371511
 ---------------------------------------------------------------------
 Rotational constants (GHZ):     59.6815563     10.1627081      8.6839806
 Leave Link  202 at Thu Feb 26 00:28:52 2015, MaxMem= 1073741824 cpu:       0.0
 (Enter /apps/gaussian/g09_c01/g09/l301.exe)
 Standard basis: Aug-CC-pVQZ (5D, 7F)
 Ernie: Thresh=  0.10000D-02 Tol=  0.10000D-05 Strict=F.
 Ernie:  9 primitive shells out of 194 were deleted.
 There are   160 symmetry adapted basis functions of A1  symmetry.
 There are    78 symmetry adapted basis functions of A2  symmetry.
 There are    92 symmetry adapted basis functions of B1  symmetry.
 There are   140 symmetry adapted basis functions of B2  symmetry.
 Integral buffers will be    131072 words long.
 Raffenetti 2 integral format.
 Two-electron integral symmetry is turned on.
   470 basis functions,   657 primitive gaussians,   590 cartesian basis functions
    12 alpha electrons       12 beta electrons
       nuclear repulsion energy        79.4241064683 Hartrees.
 IExCor= 1009 DFT=T Ex+Corr=PBE1PBE ExCW=0 ScaHFX=  0.250000
 ScaDFX=  0.750000  0.750000  1.000000  1.000000 ScalE2=  1.000000  1.000000
 IRadAn=      5 IRanWt=     -1 IRanGd=            0 ICorTp=0
 NAtoms=    8 NActive=    8 NUniq=    5 SFac= 2.56D+00 NAtFMM=   60 NAOKFM=F Big=F
 Leave Link  301 at Thu Feb 26 00:28:52 2015, MaxMem= 1073741824 cpu:       0.3
 (Enter /apps/gaussian/g09_c01/g09/l302.exe)
 NPDir=0 NMtPBC=     1 NCelOv=     1 NCel=       1 NClECP=     1 NCelD=      1
         NCelK=      1 NCelE2=     1 NClLst=     1 CellRange=     0.0.
 One-electron integrals computed using PRISM.
 One-electron integral symmetry used in STVInt
 NBasis=   470 RedAO= T  NBF=   160    78    92   140
 NBsUse=   470 1.00D-06 NBFU=   160    78    92   140
 Precomputing XC quadrature grid using
 IXCGrd= 2 IRadAn=           5 IRanWt=          -1 IRanGd=           0 AccXCQ= 0.00D+00.
 NRdTot=     687 NPtTot=      185464 NUsed=      190390 NTot=      190422
 NSgBfM=   590   590   590   590   590 NAtAll=     8     8.
 Leave Link  302 at Thu Feb 26 00:28:53 2015, MaxMem= 1073741824 cpu:       3.5
 (Enter /apps/gaussian/g09_c01/g09/l303.exe)
 DipDrv:  MaxL=1.
 Leave Link  303 at Thu Feb 26 00:28:53 2015, MaxMem= 1073741824 cpu:       0.6
 (Enter /apps/gaussian/g09_c01/g09/l401.exe)
 Harris functional with IExCor= 1009 diagonalized for initial guess.
 ExpMin= 2.36D-02 ExpMax= 4.58D+04 ExpMxC= 4.42D+02 IAcc=3 IRadAn=         5 AccDes= 0.00D+00
 HarFok:  IExCor= 1009 AccDes= 0.00D+00 IRadAn=         5 IDoV= 1
 ScaDFX=  1.000000  1.000000  1.000000  1.000000
 FoFCou: FMM=F IPFlag=           0 FMFlag=      100000 FMFlg1=           0
         NFxFlg=           0 DoJE=T BraDBF=F KetDBF=T FulRan=T
         Omega=  0.000000  0.000000  1.000000  0.000000  0.000000 ICntrl=     500 IOpCl=  0
         NMat0=    1 NMatS0=    1 NMatT0=    0 NMatD0=    1 NMtDS0=    0 NMtDT0=    0
         I1Cent=           4 NGrid=           0.
 Petite list used in FoFCou.
 Harris En= -150.356986675674    
 Initial guess orbital symmetries:
       Occupied  (B2) (A1) (A1) (A1) (B2) (A1) (A1) (B2) (B2) (A1)
                 (B1) (A2)
       Virtual   (B1) (A1) (B2) (A1) (A1) (B2) (B1) (A1) (B2) (A1)
                 (A1) (A2) (B1) (B2) (A1) (B2) (A1) (B2) (B1) (A1)
                 (A1) (A2) (B2) (B2) (B1) (A1) (A1) (A1) (B1) (A1)
                 (A2) (B2) (B2) (A1) (B1) (A2) (A1) (B2) (B2) (A1)
                 (A1) (B2) (B1) (B2) (A1) (A2) (B1) (B2) (A1) (B1)
                 (B2) (A2) (A1) (B2) (A1) (A1) (B2) (B1) (B2) (A1)
                 (A1) (A2) (A1) (B2) (B1) (A1) (A2) (A1) (B1) (B2)
                 (B1) (A2) (B2) (B1) (A1) (B2) (B2) (A1) (A1) (A1)
                 (A2) (B1) (A2) (B1) (B2) (A1) (B2) (A1) (A2) (A2)
                 (B1) (B2) (A1) (B2) (B2) (A1) (A2) (B2) (A1) (A1)
                 (B1) (B1) (A1) (B2) (B2) (A1) (A2) (A1) (B2) (B1)
                 (B2) (B1) (A1) (A2) (A1) (A1) (B1) (B2) (A2) (A1)
                 (B2) (A1) (B1) (B2) (A1) (B1) (B2) (A2) (A1) (B2)
                 (A2) (A1) (B2) (B1) (B1) (B2) (A1) (A2) (A1) (B2)
                 (B1) (A1) (A2) (B2) (B1) (B2) (A1) (B1) (B2) (A1)
                 (A2) (A2) (B2) (A1) (A1) (B1) (B2) (A1) (B2) (A2)
                 (A1) (A1) (B1) (B2) (A2) (B1) (A1) (A1) (B2) (B1)
                 (B1) (A1) (A2) (B2) (A2) (A2) (B2) (A1) (B1) (B2)
                 (A1) (B1) (B1) (B2) (A1) (A2) (A1) (A1) (B2) (B2)
                 (A1) (A2) (B1) (B2) (A2) (B2) (A1) (B2) (B1) (A2)
                 (A1) (B1) (B2) (A1) (A1) (B1) (A2) (B2) (B2) (A1)
                 (B1) (A2) (B2) (B1) (A1) (A1) (B2) (A1) (A2) (B2)
                 (B1) (B2) (A2) (B1) (B2) (A1) (A1) (A1) (A2) (B2)
                 (B1) (A1) (A2) (A1) (B2) (B1) (B2) (A1) (A2) (B2)
                 (A1) (A1) (B2) (B1) (B2) (A1) (A2) (B2) (B1) (B2)
                 (A1) (A1) (A2) (B1) (B2) (A2) (A1) (B1) (A1) (B2)
                 (A1) (B1) (A2) (A1) (B2) (A2) (A1) (B1) (B2) (A1)
                 (B2) (A2) (B1) (A1) (B2) (A1) (A2) (B2) (B1) (A1)
                 (B2) (A1) (B2) (A2) (B2) (B1) (A1) (B1) (A1) (B2)
                 (A2) (B2) (B1) (A2) (A1) (B2) (A1) (A1) (B2) (A1)
                 (B2) (A1) (B2) (A2) (B1) (B1) (A1) (B1) (B2) (B1)
                 (A1) (A2) (B2) (A1) (B1) (A2) (B1) (A1) (A2) (B2)
                 (A1) (B2) (B1) (A1) (B2) (A2) (B2) (A1) (A1) (B1)
                 (A2) (B1) (B2) (B1) (B2) (A1) (B2) (A2) (B1) (A1)
                 (A1) (A2) (B2) (A2) (A1) (B2) (A2) (A1) (B1) (B1)
                 (B2) (A1) (A2) (B1) (A1) (A2) (B2) (A1) (B1) (B1)
                 (A2) (B2) (A1) (B2) (A1) (A1) (B1) (B2) (A1) (B2)
                 (A2) (B2) (B1) (B2) (A2) (A1) (B1) (A2) (A1) (B2)
                 (B1) (B2) (A1) (A1) (A2) (B1) (B2) (A2) (B2) (A1)
                 (A1) (B2) (B2) (B1) (A1) (A2) (A1) (A1) (B2) (A2)
                 (B1) (B2) (A1) (B1) (B1) (A1) (B2) (A1) (A2) (A2)
                 (B1) (B2) (B1) (B2) (A2) (A2) (A1) (B1) (A1) (B1)
                 (B2) (A1) (A2) (A1) (B2) (B2) (A2) (A1) (B2) (B1)
                 (B2) (A1) (A1) (B2) (B2) (A1) (A1) (B1) (A2) (B1)
                 (A2) (B2) (A1) (B2) (A1) (B2) (A1) (B2) (A1) (A1)
                 (B2) (A1) (B2) (B2) (A1) (A1) (A1) (B2)
 The electronic state of the initial guess is 1-A1.
 Leave Link  401 at Thu Feb 26 00:28:54 2015, MaxMem= 1073741824 cpu:      10.7
 (Enter /apps/gaussian/g09_c01/g09/l502.exe)
 Closed shell SCF:
 Requested convergence on RMS density matrix=1.00D-08 within 128 cycles.
 Requested convergence on MAX density matrix=1.00D-06.
 Requested convergence on             energy=1.00D-06.
 No special actions if energy rises.
 Using DIIS extrapolation, IDIIS=  1040.
 Integral symmetry usage will be decided dynamically.
       190305 words used for storage of precomputed grid.
 IEnd=     1262487 IEndB=     1262487 NGot=  1073741824 MDV=  1072844668
 LenX=  1072844668 LenY=  1072495978
 Fock matrices will be formed incrementally for  20 cycles.

 Cycle   1  Pass 1  IDiag  1:
 FoFCou: FMM=F IPFlag=           0 FMFlag=      100000 FMFlg1=           0
         NFxFlg=           0 DoJE=F BraDBF=F KetDBF=F FulRan=T
         Omega=  0.000000  0.000000  1.000000  0.000000  0.000000 ICntrl=       0 IOpCl=  0
         NMat0=    1 NMatS0=    1 NMatT0=    0 NMatD0=    1 NMtDS0=    0 NMtDT0=    0
         I1Cent=           0 NGrid=           0.
 Petite list used in FoFCou.
 E= -150.236082220976    
 DIIS: error= 1.64D-02 at cycle   1 NSaved=   1.
 NSaved= 1 IEnMin= 1 EnMin= -150.236082220976     IErMin= 1 ErrMin= 1.64D-02
 ErrMax= 1.64D-02 EMaxC= 1.00D-01 BMatC= 8.19D-02 BMatP= 8.19D-02
 IDIUse=3 WtCom= 8.36D-01 WtEn= 1.64D-01
 Coeff-Com:  0.100D+01
 Coeff-En:   0.100D+01
 Coeff:      0.100D+01
 Gap=     0.257 Goal=   None    Shift=    0.000
 GapD=    0.257 DampG=1.000 DampE=0.500 DampFc=0.5000 IDamp=-1.
 Damping current iteration by 5.00D-01
 RMSDP=4.99D-04 MaxDP=3.49D-02              OVMax= 1.00D-01

 Cycle   2  Pass 1  IDiag  1:
 RMSU=  1.76D-04    CP:  9.95D-01
 E= -150.255911717186     Delta-E=       -0.019829496210 Rises=F Damp=T
 DIIS: error= 3.82D-03 at cycle   2 NSaved=   2.
 NSaved= 2 IEnMin= 2 EnMin= -150.255911717186     IErMin= 2 ErrMin= 3.82D-03
 ErrMax= 3.82D-03 EMaxC= 1.00D-01 BMatC= 6.25D-03 BMatP= 8.19D-02
 IDIUse=3 WtCom= 9.62D-01 WtEn= 3.82D-02
 Coeff-Com: -0.164D-01 0.102D+01
 Coeff-En:   0.113D+00 0.887D+00
 Coeff:     -0.114D-01 0.101D+01
 Gap=     0.303 Goal=   None    Shift=    0.000
 RMSDP=2.51D-04 MaxDP=2.42D-02 DE=-1.98D-02 OVMax= 8.30D-02

 Cycle   3  Pass 1  IDiag  1:
 RMSU=  1.56D-04    CP:  1.01D+00  1.45D+00
 E= -150.279252955793     Delta-E=       -0.023341238607 Rises=F Damp=F
 DIIS: error= 3.55D-03 at cycle   3 NSaved=   3.
 NSaved= 3 IEnMin= 3 EnMin= -150.279252955793     IErMin= 3 ErrMin= 3.55D-03
 ErrMax= 3.55D-03 EMaxC= 1.00D-01 BMatC= 2.25D-03 BMatP= 6.25D-03
 IDIUse=3 WtCom= 9.64D-01 WtEn= 3.55D-02
 Coeff-Com: -0.109D+00 0.340D+00 0.770D+00
 Coeff-En:   0.000D+00 0.000D+00 0.100D+01
 Coeff:     -0.106D+00 0.328D+00 0.778D+00
 Gap=     0.292 Goal=   None    Shift=    0.000
 RMSDP=5.53D-05 MaxDP=4.24D-03 DE=-2.33D-02 OVMax= 2.33D-02

 Cycle   4  Pass 1  IDiag  1:
 RMSU=  3.28D-05    CP:  1.01D+00  1.53D+00  8.95D-01
 E= -150.280767056307     Delta-E=       -0.001514100515 Rises=F Damp=F
 DIIS: error= 2.16D-03 at cycle   4 NSaved=   4.
 NSaved= 4 IEnMin= 4 EnMin= -150.280767056307     IErMin= 4 ErrMin= 2.16D-03
 ErrMax= 2.16D-03 EMaxC= 1.00D-01 BMatC= 3.19D-04 BMatP= 2.25D-03
 IDIUse=3 WtCom= 9.78D-01 WtEn= 2.16D-02
 Coeff-Com: -0.502D-01 0.105D+00 0.396D+00 0.549D+00
 Coeff-En:   0.000D+00 0.000D+00 0.721D-01 0.928D+00
 Coeff:     -0.491D-01 0.102D+00 0.389D+00 0.558D+00
 Gap=     0.295 Goal=   None    Shift=    0.000
 RMSDP=2.03D-05 MaxDP=1.65D-03 DE=-1.51D-03 OVMax= 7.44D-03

 Cycle   5  Pass 1  IDiag  1:
 RMSU=  6.01D-06    CP:  1.01D+00  1.53D+00  9.12D-01  6.14D-01
 E= -150.281060398231     Delta-E=       -0.000293341923 Rises=F Damp=F
 DIIS: error= 1.70D-04 at cycle   5 NSaved=   5.
 NSaved= 5 IEnMin= 5 EnMin= -150.281060398231     IErMin= 5 ErrMin= 1.70D-04
 ErrMax= 1.70D-04 EMaxC= 1.00D-01 BMatC= 4.19D-06 BMatP= 3.19D-04
 IDIUse=3 WtCom= 9.98D-01 WtEn= 1.70D-03
 Coeff-Com: -0.127D-01 0.242D-01 0.110D+00 0.200D+00 0.678D+00
 Coeff-En:   0.000D+00 0.000D+00 0.000D+00 0.000D+00 0.100D+01
 Coeff:     -0.127D-01 0.242D-01 0.110D+00 0.199D+00 0.679D+00
 Gap=     0.295 Goal=   None    Shift=    0.000
 RMSDP=2.46D-06 MaxDP=2.18D-04 DE=-2.93D-04 OVMax= 4.65D-04

 Cycle   6  Pass 1  IDiag  1:
 RMSU=  1.09D-06    CP:  1.01D+00  1.53D+00  9.15D-01  6.41D-01  8.82D-01
 E= -150.281063919855     Delta-E=       -0.000003521624 Rises=F Damp=F
 DIIS: error= 1.93D-05 at cycle   6 NSaved=   6.
 NSaved= 6 IEnMin= 6 EnMin= -150.281063919855     IErMin= 6 ErrMin= 1.93D-05
 ErrMax= 1.93D-05 EMaxC= 1.00D-01 BMatC= 5.75D-08 BMatP= 4.19D-06
 IDIUse=1 WtCom= 1.00D+00 WtEn= 0.00D+00
 Coeff-Com: -0.221D-03 0.156D-03 0.559D-02 0.207D-01 0.129D+00 0.845D+00
 Coeff:     -0.221D-03 0.156D-03 0.559D-02 0.207D-01 0.129D+00 0.845D+00
 Gap=     0.295 Goal=   None    Shift=    0.000
 RMSDP=4.52D-07 MaxDP=7.08D-05 DE=-3.52D-06 OVMax= 5.61D-05

 Cycle   7  Pass 1  IDiag  1:
 RMSU=  1.93D-07    CP:  1.01D+00  1.53D+00  9.16D-01  6.44D-01  8.97D-01
                    CP:  1.02D+00
 E= -150.281063967504     Delta-E=       -0.000000047649 Rises=F Damp=F
 DIIS: error= 2.78D-06 at cycle   7 NSaved=   7.
 NSaved= 7 IEnMin= 7 EnMin= -150.281063967504     IErMin= 7 ErrMin= 2.78D-06
 ErrMax= 2.78D-06 EMaxC= 1.00D-01 BMatC= 1.56D-09 BMatP= 5.75D-08
 IDIUse=1 WtCom= 1.00D+00 WtEn= 0.00D+00
 Coeff-Com:  0.262D-03-0.539D-03-0.194D-02-0.874D-03 0.276D-02 0.138D+00
 Coeff-Com:  0.862D+00
 Coeff:      0.262D-03-0.539D-03-0.194D-02-0.874D-03 0.276D-02 0.138D+00
 Coeff:      0.862D+00
 Gap=     0.295 Goal=   None    Shift=    0.000
 RMSDP=6.62D-08 MaxDP=6.12D-06 DE=-4.76D-08 OVMax= 8.08D-06

 Cycle   8  Pass 1  IDiag  1:
 RMSU=  2.51D-08    CP:  1.01D+00  1.54D+00  9.16D-01  6.45D-01  8.97D-01
                    CP:  1.03D+00  9.98D-01
 E= -150.281063968711     Delta-E=       -0.000000001207 Rises=F Damp=F
 DIIS: error= 4.51D-07 at cycle   8 NSaved=   8.
 NSaved= 8 IEnMin= 8 EnMin= -150.281063968711     IErMin= 8 ErrMin= 4.51D-07
 ErrMax= 4.51D-07 EMaxC= 1.00D-01 BMatC= 4.00D-11 BMatP= 1.56D-09
 IDIUse=1 WtCom= 1.00D+00 WtEn= 0.00D+00
 Coeff-Com:  0.473D-05-0.946D-05-0.222D-03-0.288D-03-0.167D-02-0.666D-02
 Coeff-Com:  0.353D-01 0.974D+00
 Coeff:      0.473D-05-0.946D-05-0.222D-03-0.288D-03-0.167D-02-0.666D-02
 Coeff:      0.353D-01 0.974D+00
 Gap=     0.295 Goal=   None    Shift=    0.000
 RMSDP=8.10D-09 MaxDP=6.45D-07 DE=-1.21D-09 OVMax= 1.31D-06

 SCF Done:  E(RPBE1PBE) =  -150.281063969     A.U. after    8 cycles
             Convg  =    0.8099D-08             -V/T =  2.0053
 KE= 1.494853939701D+02 PE=-5.028068798040D+02 EE= 1.236163153969D+02
 Leave Link  502 at Thu Feb 26 00:33:07 2015, MaxMem= 1073741824 cpu:    2019.0
 (Enter /apps/gaussian/g09_c01/g09/l801.exe)
 Range of M.O.s used for correlation:     1   470
 NBasis=   470 NAE=    12 NBE=    12 NFC=     0 NFV=     0
 NROrb=    470 NOA=    12 NOB=    12 NVA=   458 NVB=   458

 **** Warning!!: The largest alpha MO coefficient is  0.98218363D+02

 Leave Link  801 at Thu Feb 26 00:33:07 2015, MaxMem= 1073741824 cpu:       0.1
 (Enter /apps/gaussian/g09_c01/g09/l1002.exe)
 Minotr:  Closed shell wavefunction.
          Direct CPHF calculation.
          Differentiating once with respect to electric field.
                with respect to dipole field.
          Electric field/nuclear overlap derivatives assumed to be zero.
          Using symmetry in CPHF.
          Requested convergence is 1.0D-08 RMS, and 1.0D-07 maximum.
          Secondary convergence is 1.0D-12 RMS, and 1.0D-12 maximum.
          NewPWx=F KeepS1=T KeepF1=T KeepIn=T MapXYZ=F SortEE=F KeepMc=T.
          MDV=    1073741756 using IRadAn=       1.
 Generate precomputed XC quadrature information.
          Solving linear equations simultaneously, MaxMat=       0.
          There are     3 degrees of freedom in the 1st order CPHF.  IDoFFX=0.
      3 vectors produced by pass  0 Test12= 1.83D-13 3.33D-08 XBig12= 3.10D+01 4.67D+00.
 AX will form     3 AO Fock derivatives at one time.
 Integrals replicated using symmetry in FoFDir.
 MinBra= 0 MaxBra= 4 Meth= 1.
 IRaf=       0 NMat=   3 IRICut=       1 DoRegI=T DoRafI=F ISym2E= 2 JSym2E=2.
      3 vectors produced by pass  1 Test12= 1.83D-13 3.33D-08 XBig12= 8.47D+00 8.71D-01.
      3 vectors produced by pass  2 Test12= 1.83D-13 3.33D-08 XBig12= 8.89D-01 3.00D-01.
      3 vectors produced by pass  3 Test12= 1.83D-13 3.33D-08 XBig12= 2.10D-02 3.32D-02.
      3 vectors produced by pass  4 Test12= 1.83D-13 3.33D-08 XBig12= 1.03D-03 7.10D-03.
      3 vectors produced by pass  5 Test12= 1.83D-13 3.33D-08 XBig12= 1.78D-04 3.73D-03.
      3 vectors produced by pass  6 Test12= 1.83D-13 3.33D-08 XBig12= 5.35D-06 6.17D-04.
      3 vectors produced by pass  7 Test12= 1.83D-13 3.33D-08 XBig12= 1.17D-07 9.32D-05.
      2 vectors produced by pass  8 Test12= 1.83D-13 3.33D-08 XBig12= 1.05D-09 8.13D-06.
      2 vectors produced by pass  9 Test12= 1.83D-13 3.33D-08 XBig12= 1.72D-11 1.02D-06.
      1 vectors produced by pass 10 Test12= 1.83D-13 3.33D-08 XBig12= 1.46D-13 7.23D-08.
 Inverted reduced A of dimension    29 with in-core refinement.
 End of Minotr Frequency-dependent properties file   721 does not exist.
 End of Minotr Frequency-dependent properties file   722 does not exist.
 Leave Link 1002 at Thu Feb 26 00:48:15 2015, MaxMem= 1073741824 cpu:    7244.5
 (Enter /apps/gaussian/g09_c01/g09/l1101.exe)
 Using compressed storage, NAtomX=     8.
 Will process   9 centers per pass.
 Leave Link 1101 at Thu Feb 26 00:48:16 2015, MaxMem= 1073741824 cpu:       4.9
 (Enter /apps/gaussian/g09_c01/g09/l1102.exe)
 Symmetrizing basis deriv contribution to polar:
 IMax=3 JMax=2 DiffMx= 0.00D+00
 Leave Link 1102 at Thu Feb 26 00:48:16 2015, MaxMem= 1073741824 cpu:       0.6
 (Enter /apps/gaussian/g09_c01/g09/l1110.exe)
 Forming Gx(P) for the SCF density, NAtomX=     8.
 Integral derivatives from FoFDir/FoFCou, PRISM(SPDF).
 Do as many integral derivatives as possible in FoFDir.
 G2DrvN: MDV=    1073741656.
 G2DrvN: will do     9 centers at a time, making    1 passes doing MaxLOS=4.
 Calling FoFCou, ICntrl=  3107 FMM=F I1Cent=   0 AccDes= 0.00D+00.
 FoFCou: FMM=F IPFlag=           0 FMFlag=      100000 FMFlg1=           0
         NFxFlg=           0 DoJE=F BraDBF=F KetDBF=F FulRan=T
         Omega=  0.000000  0.000000  1.000000  0.000000  0.000000 ICntrl=    3107 IOpCl=  0
         NMat0=    1 NMatS0=    1 NMatT0=    0 NMatD0=    4 NMtDS0=    3 NMtDT0=    0
         I1Cent=           0 NGrid=           0.
 Petite list used in FoFCou.
 FoFDir/FoFCou used for L=0 through L=4.
 End of G2Drv Frequency-dependent properties file   721 does not exist.
 End of G2Drv Frequency-dependent properties file   722 does not exist.
 Leave Link 1110 at Thu Feb 26 00:54:37 2015, MaxMem= 1073741824 cpu:    3035.2
 (Enter /apps/gaussian/g09_c01/g09/l1002.exe)
 Minotr:  Closed shell wavefunction.
          IDoAtm=11111111
          Direct CPHF calculation.
          Differentiating once with respect to electric field.
                with respect to dipole field.
          Differentiating once with respect to nuclear coordinates.
          Using symmetry in CPHF.
          Requested convergence is 1.0D-08 RMS, and 1.0D-07 maximum.
          Secondary convergence is 1.0D-12 RMS, and 1.0D-12 maximum.
          NewPWx=T KeepS1=F KeepF1=F KeepIn=T MapXYZ=F SortEE=F KeepMc=T.
          MDV=    1073741740 using IRadAn=       1.
 Generate precomputed XC quadrature information.
          Solving linear equations simultaneously, MaxMat=       0.
 Integrals replicated using symmetry in FoFDir.
 MinBra= 0 MaxBra= 4 Meth= 1.
 IRaf=       0 NMat=  18 IRICut=       1 DoRegI=T DoRafI=F ISym2E= 2 JSym2E=2.
          There are    18 degrees of freedom in the 1st order CPHF.  IDoFFX=4.
 Will reuse    3 saved solutions.
     15 vectors produced by pass  0 Test12= 3.05D-14 5.56D-09 XBig12= 1.30D-01 1.17D-01.
 AX will form    15 AO Fock derivatives at one time.
     15 vectors produced by pass  1 Test12= 3.05D-14 5.56D-09 XBig12= 3.39D-02 1.07D-01.
     15 vectors produced by pass  2 Test12= 3.05D-14 5.56D-09 XBig12= 9.42D-04 5.41D-03.
     15 vectors produced by pass  3 Test12= 3.05D-14 5.56D-09 XBig12= 7.41D-06 4.93D-04.
     15 vectors produced by pass  4 Test12= 3.05D-14 5.56D-09 XBig12= 2.82D-08 2.81D-05.
     15 vectors produced by pass  5 Test12= 3.05D-14 5.56D-09 XBig12= 1.06D-10 1.60D-06.
      6 vectors produced by pass  6 Test12= 3.05D-14 5.56D-09 XBig12= 2.37D-13 9.36D-08.
 Inverted reduced A of dimension    96 with in-core refinement.
 FullF1:  Do perturbations    1 to    18.
 Isotropic polarizability for W=    0.000000       26.87 Bohr**3.
 FullF1:  Do perturbations    1 to     6.
 End of Minotr Frequency-dependent properties file   721 does not exist.
 End of Minotr Frequency-dependent properties file   722 does not exist.
 Leave Link 1002 at Thu Feb 26 01:25:55 2015, MaxMem= 1073741824 cpu:   14986.8
 (Enter /apps/gaussian/g09_c01/g09/l601.exe)
 Copying SCF densities to generalized density rwf, IOpCl= 0 IROHF=0.

 **********************************************************************

            Population analysis using the SCF density.

 **********************************************************************

 Orbital symmetries:
       Occupied  (B2) (A1) (A1) (A1) (B2) (A1) (A1) (B2) (B2) (A1)
                 (B1) (A2)
       Virtual   (B1) (A1) (A1) (B2) (B1) (A1) (B2) (A1) (B2) (A1)
                 (A2) (B1) (A1) (B2) (A1) (B2) (A1) (B2) (B1) (A1)
                 (A2) (A1) (B2) (B1) (B2) (A1) (B1) (A1) (A1) (A2)
                 (A1) (B2) (A1) (B2) (B1) (A2) (B2) (A1) (B2) (A1)
                 (A1) (B2) (B1) (B2) (A1) (B1) (A2) (B2) (B1) (A1)
                 (B2) (A2) (A1) (B2) (A1) (A1) (B2) (B1) (A1) (B2)
                 (A1) (A2) (A1) (B1) (A2) (B2) (A1) (B1) (A1) (B2)
                 (B1) (A2) (B1) (B2) (A1) (B2) (A1) (B2) (A1) (A2)
                 (A1) (B1) (A2) (B1) (A1) (B2) (B2) (A2) (A1) (A2)
                 (B1) (B2) (B2) (A1) (B2) (A1) (A2) (B2) (A1) (A1)
                 (B1) (B1) (A1) (B2) (B2) (A1) (A2) (A1) (B1) (B2)
                 (B2) (B1) (A1) (A2) (A1) (A1) (B1) (B2) (A2) (B1)
                 (A1) (B2) (A1) (B2) (A1) (B1) (B2) (A2) (A1) (B2)
                 (A2) (A1) (B2) (B1) (B1) (B2) (A1) (A2) (B2) (A1)
                 (B1) (A2) (A1) (B1) (B2) (B2) (A1) (A2) (B1) (B2)
                 (A1) (A2) (B2) (A1) (B1) (A1) (B2) (A1) (A2) (B2)
                 (A1) (A1) (B1) (A2) (B2) (B1) (A1) (A1) (B1) (B2)
                 (B1) (A1) (B2) (A2) (A2) (B1) (A2) (B2) (A1) (B2)
                 (A1) (B1) (B1) (A1) (B2) (A2) (A1) (B2) (A1) (B2)
                 (A1) (A2) (B2) (B1) (A2) (B2) (B2) (A1) (B1) (A2)
                 (A1) (B1) (B2) (A1) (A1) (A2) (B1) (B2) (B2) (A1)
                 (B1) (A2) (B2) (B1) (A1) (A1) (B2) (A1) (A2) (B2)
                 (B1) (B2) (A2) (B1) (B2) (A1) (A1) (A1) (B2) (A2)
                 (B1) (A1) (A2) (A1) (B2) (B1) (B2) (A1) (A2) (B2)
                 (A1) (A1) (B2) (B1) (B2) (A1) (A2) (B2) (B1) (B2)
                 (A1) (A2) (A1) (B1) (A2) (B2) (A1) (B1) (A1) (B2)
                 (A1) (B1) (A2) (A1) (B2) (A2) (B2) (A1) (B1) (A1)
                 (B2) (A2) (B1) (A1) (B2) (A1) (A2) (B2) (B1) (A1)
                 (B2) (A1) (B2) (A2) (B2) (B1) (A1) (B1) (A1) (A2)
                 (B2) (B2) (B1) (A2) (A1) (B2) (A1) (A1) (B2) (A1)
                 (B2) (A1) (B2) (A2) (B1) (B1) (A1) (B1) (B2) (B1)
                 (A1) (A2) (B2) (A1) (B1) (A2) (B1) (A1) (A2) (B2)
                 (A1) (B2) (B1) (A1) (B2) (A2) (B2) (A1) (A1) (B1)
                 (A2) (B1) (B2) (B1) (B2) (A1) (B2) (A2) (B1) (A1)
                 (A1) (A2) (B2) (A2) (A1) (B2) (A2) (A1) (B1) (B1)
                 (B2) (A2) (A1) (B1) (A1) (A2) (B2) (B1) (A1) (B1)
                 (A2) (B2) (A1) (B2) (A1) (A1) (B2) (A1) (B2) (B1)
                 (A2) (B2) (B1) (B2) (A2) (A1) (B1) (A2) (A1) (B2)
                 (B1) (B2) (A1) (A1) (B1) (A2) (B2) (A2) (B2) (A1)
                 (A1) (B2) (A1) (B2) (B1) (A2) (A1) (A1) (B2) (A2)
                 (B1) (B2) (A1) (B1) (B1) (A1) (B2) (A1) (A2) (A2)
                 (B1) (B2) (B2) (B1) (A2) (A2) (A1) (B1) (A1) (B2)
                 (A1) (B1) (A2) (B2) (A1) (B2) (A2) (A1) (B2) (B1)
                 (B2) (A1) (A1) (B2) (B2) (A1) (A1) (B1) (A2) (B1)
                 (A2) (B2) (A1) (B2) (A1) (B2) (A1) (A1) (B2) (A1)
                 (B2) (A1) (B2) (B2) (A1) (A1) (A1) (B2)
 The electronic state is 1-A1.
 Alpha  occ. eigenvalues --  -14.65399 -14.65398 -10.56687  -1.24564  -1.15849
 Alpha  occ. eigenvalues --   -0.91505  -0.83316  -0.80803  -0.73962  -0.67807
 Alpha  occ. eigenvalues --   -0.65651  -0.52801
 Alpha virt. eigenvalues --   -0.23279  -0.17167  -0.14632  -0.14254  -0.09894
 Alpha virt. eigenvalues --   -0.09362  -0.09160  -0.08010  -0.05927  -0.05796
 Alpha virt. eigenvalues --   -0.05152  -0.04827  -0.04224  -0.02600  -0.02536
 Alpha virt. eigenvalues --   -0.01133  -0.01100   0.00520   0.00821   0.01812
 Alpha virt. eigenvalues --    0.03102   0.03827   0.04916   0.05265   0.05968
 Alpha virt. eigenvalues --    0.06474   0.08922   0.08959   0.09517   0.10667
 Alpha virt. eigenvalues --    0.10842   0.11400   0.11645   0.11783   0.12187
 Alpha virt. eigenvalues --    0.13937   0.15086   0.15250   0.16529   0.17389
 Alpha virt. eigenvalues --    0.18063   0.19066   0.19210   0.20238   0.21604
 Alpha virt. eigenvalues --    0.23234   0.23518   0.25456   0.25620   0.26547
 Alpha virt. eigenvalues --    0.27869   0.28654   0.30368   0.31171   0.31990
 Alpha virt. eigenvalues --    0.33467   0.35456   0.36785   0.39406   0.40055
 Alpha virt. eigenvalues --    0.41551   0.41911   0.43417   0.43545   0.44197
 Alpha virt. eigenvalues --    0.44438   0.44816   0.47339   0.47492   0.48702
 Alpha virt. eigenvalues --    0.49534   0.50318   0.50502   0.51785   0.52629
 Alpha virt. eigenvalues --    0.52802   0.53408   0.54107   0.55445   0.55602
 Alpha virt. eigenvalues --    0.56367   0.57194   0.61978   0.62896   0.63268
 Alpha virt. eigenvalues --    0.63675   0.65231   0.65824   0.66425   0.67162
 Alpha virt. eigenvalues --    0.69718   0.70360   0.71270   0.71536   0.73261
 Alpha virt. eigenvalues --    0.73840   0.74316   0.76050   0.76607   0.76979
 Alpha virt. eigenvalues --    0.82389   0.83137   0.83600   0.84519   0.85682
 Alpha virt. eigenvalues --    0.86737   0.90029   0.94068   0.95071   0.95240
 Alpha virt. eigenvalues --    0.96620   0.99669   1.01443   1.04107   1.05372
 Alpha virt. eigenvalues --    1.08566   1.08672   1.09975   1.14053   1.16127
 Alpha virt. eigenvalues --    1.16273   1.16378   1.18145   1.19069   1.19863
 Alpha virt. eigenvalues --    1.20677   1.22694   1.23936   1.25108   1.28268
 Alpha virt. eigenvalues --    1.29182   1.31502   1.32791   1.33687   1.34467
 Alpha virt. eigenvalues --    1.35917   1.37070   1.41361   1.42808   1.43352
 Alpha virt. eigenvalues --    1.45677   1.46286   1.47133   1.48369   1.48857
 Alpha virt. eigenvalues --    1.51048   1.51564   1.53803   1.53862   1.54107
 Alpha virt. eigenvalues --    1.54626   1.59906   1.61789   1.62775   1.64106
 Alpha virt. eigenvalues --    1.64331   1.67005   1.67412   1.69223   1.70444
 Alpha virt. eigenvalues --    1.71778   1.74261   1.74665   1.76333   1.77303
 Alpha virt. eigenvalues --    1.78793   1.81004   1.81744   1.83112   1.83941
 Alpha virt. eigenvalues --    1.84983   1.85546   1.87053   1.87768   1.89289
 Alpha virt. eigenvalues --    1.91086   1.91515   1.91525   1.92353   1.96207
 Alpha virt. eigenvalues --    1.96855   1.98164   2.04503   2.05246   2.06207
 Alpha virt. eigenvalues --    2.08587   2.15552   2.16643   2.16778   2.20059
 Alpha virt. eigenvalues --    2.22056   2.23656   2.24923   2.25344   2.29356
 Alpha virt. eigenvalues --    2.29425   2.33723   2.33771   2.35374   2.36689
 Alpha virt. eigenvalues --    2.37714   2.42365   2.43098   2.44161   2.47888
 Alpha virt. eigenvalues --    2.50081   2.50144   2.51029   2.51716   2.54113
 Alpha virt. eigenvalues --    2.54933   2.60080   2.60216   2.60838   2.61745
 Alpha virt. eigenvalues --    2.66528   2.68805   2.72718   2.73590   2.76401
 Alpha virt. eigenvalues --    2.77988   2.79090   2.80413   2.81503   2.83032
 Alpha virt. eigenvalues --    2.83633   2.86514   2.90760   2.91013   2.91040
 Alpha virt. eigenvalues --    2.96401   2.96470   2.97708   3.02427   3.03149
 Alpha virt. eigenvalues --    3.04495   3.07936   3.09489   3.10331   3.12560
 Alpha virt. eigenvalues --    3.16162   3.21760   3.25939   3.26126   3.32470
 Alpha virt. eigenvalues --    3.34085   3.37358   3.41004   3.48016   3.51468
 Alpha virt. eigenvalues --    3.54678   3.56002   3.56185   3.58812   3.61021
 Alpha virt. eigenvalues --    3.61618   3.62646   3.67309   3.76180   3.78176
 Alpha virt. eigenvalues --    3.79986   3.80834   3.84857   3.85741   3.88256
 Alpha virt. eigenvalues --    3.92176   3.98007   3.98091   3.98927   4.01905
 Alpha virt. eigenvalues --    4.07350   4.10453   4.11827   4.12655   4.20430
 Alpha virt. eigenvalues --    4.26159   4.27028   4.30073   4.30100   4.32767
 Alpha virt. eigenvalues --    4.35030   4.38456   4.41438   4.48257   4.49849
 Alpha virt. eigenvalues --    4.53284   4.57250   4.70305   4.73637   4.80887
 Alpha virt. eigenvalues --    4.81201   4.86928   4.87912   4.94682   4.98034
 Alpha virt. eigenvalues --    5.06780   5.10343   5.11633   5.15595   5.31301
 Alpha virt. eigenvalues --    5.41636   5.53931   5.61359   5.63270   5.65994
 Alpha virt. eigenvalues --    5.74400   5.80752   5.82280   6.09308   6.10047
 Alpha virt. eigenvalues --    6.10804   6.11621   6.18085   6.18619   6.23424
 Alpha virt. eigenvalues --    6.26074   6.43329   6.47244   6.47447   6.49228
 Alpha virt. eigenvalues --    6.51210   6.55119   6.63814   6.66484   6.68659
 Alpha virt. eigenvalues --    6.69904   6.71733   6.73026   6.79575   6.79612
 Alpha virt. eigenvalues --    6.92735   6.96298   6.99805   7.05730   7.07089
 Alpha virt. eigenvalues --    7.10942   7.12530   7.13215   7.15118   7.16735
 Alpha virt. eigenvalues --    7.25347   7.33055   7.35604   7.36051   7.37724
 Alpha virt. eigenvalues --    7.42944   7.44306   7.46736   7.49639   7.55059
 Alpha virt. eigenvalues --    7.60593   7.66093   7.66296   7.81143   7.83623
 Alpha virt. eigenvalues --    7.89589   7.92057   7.93052   7.93345   7.96887
 Alpha virt. eigenvalues --    7.97082   8.00357   8.02854   8.06160   8.08093
 Alpha virt. eigenvalues --    8.11794   8.13291   8.14920   8.18849   8.20336
 Alpha virt. eigenvalues --    8.24238   8.26270   8.27133   8.34004   8.35850
 Alpha virt. eigenvalues --    8.37971   8.38196   8.40325   8.42805   8.53221
 Alpha virt. eigenvalues --    8.58222   8.59562   8.61152   8.64686   8.68549
 Alpha virt. eigenvalues --    8.68788   8.69851   8.71158   8.75538   8.76507
 Alpha virt. eigenvalues --    8.82599   8.87977   8.97078   8.97383   8.97663
 Alpha virt. eigenvalues --    9.00706   9.05305   9.08647   9.09311   9.10981
 Alpha virt. eigenvalues --    9.24002   9.26050   9.27442   9.29312   9.31424
 Alpha virt. eigenvalues --    9.33365   9.37307   9.38376   9.40826   9.46994
 Alpha virt. eigenvalues --    9.48776   9.54869   9.65771   9.66566   9.71516
 Alpha virt. eigenvalues --    9.72662   9.74781   9.76351   9.83182   9.84990
 Alpha virt. eigenvalues --    9.89827   9.89903  10.01995  10.03759  10.03786
 Alpha virt. eigenvalues --   10.25499  10.31623  10.36537  10.42524  10.48706
 Alpha virt. eigenvalues --   10.51111  10.86145  11.00128  11.18467  11.30691
 Alpha virt. eigenvalues --   11.31132  11.37337  11.42617  11.43994  11.55107
 Alpha virt. eigenvalues --   11.55745  11.69100  11.86529  11.92392  12.11143
 Alpha virt. eigenvalues --   12.42994  12.46614  12.57470  12.59980  12.90281
 Alpha virt. eigenvalues --   13.03059  14.14726  14.23421  14.47346  14.48145
 Alpha virt. eigenvalues --   25.70776  34.19273  34.30438
          Condensed to atoms (all electrons):
              1          2          3          4          5          6
     1  C    5.031196   0.243391   0.401224  -0.036214  -0.008386   0.401224
     2  H    0.243391   0.197479  -0.049606  -0.001550  -0.000146  -0.049606
     3  N    0.401224  -0.049606   6.538451   0.393924   0.340465  -0.084478
     4  H   -0.036214  -0.001550   0.393924   0.367138  -0.044687   0.011697
     5  H   -0.008386  -0.000146   0.340465  -0.044687   0.333095  -0.015059
     6  N    0.401224  -0.049606  -0.084478   0.011697  -0.015059   6.538451
     7  H   -0.008386  -0.000146  -0.015059  -0.000038   0.005653   0.340465
     8  H   -0.036214  -0.001550   0.011697  -0.000834  -0.000038   0.393924
              7          8
     1  C   -0.008386  -0.036214
     2  H   -0.000146  -0.001550
     3  N   -0.015059   0.011697
     4  H   -0.000038  -0.000834
     5  H    0.005653  -0.000038
     6  N    0.340465   0.393924
     7  H    0.333095  -0.044687
     8  H   -0.044687   0.367138
 Mulliken atomic charges:
              1
     1  C    0.012166
     2  H    0.661734
     3  N   -0.536617
     4  H    0.310564
     5  H    0.389103
     6  N   -0.536617
     7  H    0.389103
     8  H    0.310564
 Sum of Mulliken atomic charges =   1.00000
 Mulliken charges with hydrogens summed into heavy atoms:
              1
     1  C    0.673899
     3  N    0.163050
     6  N    0.163050
 Sum of Mulliken charges with hydrogens summed into heavy atoms =   1.00000
 APT atomic charges:
              1
     1  C    0.871513
     2  H    0.131131
     3  N   -0.590224
     4  H    0.312622
     5  H    0.276279
     6  N   -0.590224
     7  H    0.276279
     8  H    0.312622
 Sum of APT charges=   1.00000
 APT Atomic charges with hydrogens summed into heavy atoms:
              1
     1  C    1.002644
     2  H    0.000000
     3  N   -0.001322
     4  H    0.000000
     5  H    0.000000
     6  N   -0.001322
     7  H    0.000000
     8  H    0.000000
 Sum of APT charges=   1.00000
 Electronic spatial extent (au):  <R**2>=            158.6500
 Charge=              1.0000 electrons
 Dipole moment (field-independent basis, Debye):
    X=              0.0000    Y=              0.0000    Z=             -0.2160  Tot=              0.2160
 Quadrupole moment (field-independent basis, Debye-Ang):
   XX=            -19.1311   YY=             -4.2811   ZZ=            -10.2037
   XY=              0.0000   XZ=              0.0000   YZ=              0.0000
 Traceless Quadrupole moment (field-independent basis, Debye-Ang):
   XX=             -7.9258   YY=              6.9242   ZZ=              1.0016
   XY=              0.0000   XZ=              0.0000   YZ=              0.0000
 Octapole moment (field-independent basis, Debye-Ang**2):
  XXX=              0.0000  YYY=              0.0000  ZZZ=             -3.2417  XYY=              0.0000
  XXY=              0.0000  XXZ=             -0.0628  XZZ=              0.0000  YZZ=              0.0000
  YYZ=             -0.0490  XYZ=              0.0000
 Hexadecapole moment (field-independent basis, Debye-Ang**3):
 XXXX=            -17.5151 YYYY=            -70.4063 ZZZZ=            -23.0542 XXXY=              0.0000
 XXXZ=              0.0000 YYYX=              0.0000 YYYZ=              0.0000 ZZZX=              0.0000
 ZZZY=              0.0000 XXYY=            -27.4904 XXZZ=             -9.5380 YYZZ=            -17.8515
 XXYZ=              0.0000 YYXZ=              0.0000 ZZXY=              0.0000
 N-N= 7.942410646830D+01 E-N=-5.028068491808D+02  KE= 1.494853939702D+02
 Symmetry A1   KE= 8.860844047862D+01
 Symmetry A2   KE= 3.515716211986D+00
 Symmetry B1   KE= 2.747362657323D+00
 Symmetry B2   KE= 5.461387462222D+01
  Exact polarizability:  18.226   0.000  37.410   0.000   0.000  24.985
 Approx polarizability:  23.445   0.000  51.780   0.000   0.000  33.326
 No NMR shielding tensors so no spin-rotation constants.
 Leave Link  601 at Thu Feb 26 01:25:56 2015, MaxMem= 1073741824 cpu:       9.0
 (Enter /apps/gaussian/g09_c01/g09/l701.exe)
 Compute integral second derivatives.
 ... and contract with generalized density number  0.
 Leave Link  701 at Thu Feb 26 01:25:57 2015, MaxMem= 1073741824 cpu:       4.9
 (Enter /apps/gaussian/g09_c01/g09/l702.exe)
 L702 exits ... SP integral derivatives will be done elsewhere.
 Leave Link  702 at Thu Feb 26 01:25:57 2015, MaxMem= 1073741824 cpu:       0.1
 (Enter /apps/gaussian/g09_c01/g09/l703.exe)
 Compute integral second derivatives, UseDBF=F ICtDFT=           0.
 Integral derivatives from FoFDir, PRISM(SPDF).
 Calling FoFJK, ICntrl=    100127 FMM=F ISym2X=1 I1Cent= 0 IOpClX= 0 NMat=1 NMatS=1 NMatT=0.
 FoFCou: FMM=F IPFlag=           0 FMFlag=      100000 FMFlg1=         800
         NFxFlg=           0 DoJE=F BraDBF=F KetDBF=F FulRan=T
         Omega=  0.000000  0.000000  1.000000  0.000000  0.000000 ICntrl=  100127 IOpCl=  0
         NMat0=    1 NMatS0=    1 NMatT0=    0 NMatD0=    1 NMtDS0=    0 NMtDT0=    0
         I1Cent=           0 NGrid=           0.
 Petite list used in FoFCou.
 Leave Link  703 at Thu Feb 26 01:39:53 2015, MaxMem= 1073741824 cpu:    6666.8
 (Enter /apps/gaussian/g09_c01/g09/l716.exe)
 Dipole        =-1.21159139D-16 4.79306265D-14-8.49925413D-02
 Polarizability= 1.82262750D+01 1.22202042D-12 3.74095814D+01
                -1.53181585D-13 2.59046723D-14 2.49847915D+01
 HyperPolar    =-4.38702971D-10 2.25305158D-10-1.46886683D-10
                 1.72539452D-10 2.03084565D-01 1.68782867D-11
                 2.82533310D+01-1.92422033D-11 1.84698046D-11
                -5.56039500D+00
 ***** Axes restored to original set *****
 -------------------------------------------------------------------
 Center     Atomic                   Forces (Hartrees/Bohr)
 Number     Number              X              Y              Z
 -------------------------------------------------------------------
      1        6           0.000000000   -0.009328459    0.000000000
      2        1           0.000000000   -0.001544807    0.000000000
      3        7          -0.006137676    0.002042255    0.000000000
      4        1          -0.005208696   -0.002077510    0.000000000
      5        1          -0.001458988    0.005471888    0.000000000
      6        7           0.006137676    0.002042255    0.000000000
      7        1           0.001458988    0.005471888    0.000000000
      8        1           0.005208696   -0.002077510    0.000000000
 -------------------------------------------------------------------
 Cartesian Forces:  Max     0.009328459 RMS     0.003536264
 Force constants in Cartesian coordinates: 
                1             2             3             4             5 
      1  0.904299D+00
      2  0.000000D+00  0.827163D+00
      3  0.000000D+00  0.000000D+00  0.175606D+00
      4 -0.636069D-01  0.000000D+00  0.000000D+00  0.698087D-01
      5  0.000000D+00 -0.343574D+00  0.000000D+00  0.000000D+00  0.358748D+00
      6  0.000000D+00  0.000000D+00 -0.546545D-01  0.000000D+00  0.000000D+00
      7 -0.396148D+00  0.148626D+00  0.000000D+00 -0.182295D-03  0.163030D-02
      8  0.133492D+00 -0.248557D+00  0.000000D+00  0.351417D-01 -0.990730D-02
      9  0.000000D+00  0.000000D+00 -0.550482D-01  0.000000D+00  0.000000D+00
     10 -0.267942D-01 -0.170409D-01  0.000000D+00  0.115085D-02  0.160576D-03
     11  0.163668D-01  0.157773D-01  0.000000D+00  0.927756D-03  0.746460D-03
     12  0.000000D+00  0.000000D+00 -0.625904D-02  0.000000D+00  0.000000D+00
     13  0.259612D-02  0.363476D-01  0.000000D+00 -0.406948D-02  0.929543D-03
     14  0.771654D-02 -0.901537D-02  0.000000D+00  0.942913D-03  0.157373D-02
     15  0.000000D+00  0.000000D+00  0.831482D-03  0.000000D+00  0.000000D+00
     16 -0.396148D+00 -0.148626D+00  0.000000D+00 -0.182295D-03 -0.163030D-02
     17 -0.133492D+00 -0.248557D+00  0.000000D+00 -0.351417D-01 -0.990730D-02
     18  0.000000D+00  0.000000D+00 -0.550482D-01  0.000000D+00  0.000000D+00
     19  0.259612D-02 -0.363476D-01  0.000000D+00 -0.406948D-02 -0.929543D-03
     20 -0.771654D-02 -0.901536D-02  0.000000D+00 -0.942913D-03  0.157373D-02
     21  0.000000D+00  0.000000D+00  0.831482D-03  0.000000D+00  0.000000D+00
     22 -0.267942D-01  0.170409D-01  0.000000D+00  0.115085D-02 -0.160576D-03
     23 -0.163668D-01  0.157773D-01  0.000000D+00 -0.927755D-03  0.746459D-03
     24  0.000000D+00  0.000000D+00 -0.625904D-02  0.000000D+00  0.000000D+00
                6             7             8             9            10 
      6  0.319860D-01
      7  0.000000D+00  0.882206D+00
      8  0.000000D+00 -0.132935D-01  0.844425D+00
      9  0.760101D-02  0.000000D+00  0.000000D+00  0.633218D-01
     10  0.000000D+00 -0.327406D+00 -0.169553D+00  0.000000D+00  0.341479D+00
     11  0.000000D+00 -0.173610D+00 -0.189948D+00  0.000000D+00  0.176625D+00
     12 -0.409318D-02  0.000000D+00  0.000000D+00 -0.121945D-01  0.000000D+00
     13  0.000000D+00 -0.801455D-01  0.290208D-01  0.000000D+00  0.102906D-01
     14  0.000000D+00  0.276631D-01 -0.429692D+00  0.000000D+00  0.517143D-02
     15  0.782643D-02  0.000000D+00  0.000000D+00 -0.187653D-01  0.000000D+00
     16  0.000000D+00 -0.824415D-01 -0.104097D-01  0.000000D+00  0.206795D-02
     17  0.000000D+00  0.104097D-01  0.348588D-01  0.000000D+00  0.532329D-02
     18  0.760100D-02  0.000000D+00  0.000000D+00  0.130542D-01  0.000000D+00
     19  0.000000D+00  0.204884D-02  0.924610D-03  0.000000D+00 -0.115650D-03
     20  0.000000D+00  0.525863D-02  0.455366D-03  0.000000D+00 -0.224225D-03
     21  0.782643D-02  0.000000D+00  0.000000D+00 -0.374415D-02  0.000000D+00
     22  0.000000D+00  0.206795D-02 -0.532329D-02  0.000000D+00 -0.672458D-03
     23  0.000000D+00 -0.668406D-02 -0.163490D-02  0.000000D+00 -0.462828D-03
     24 -0.409318D-02  0.000000D+00  0.000000D+00  0.577510D-02  0.000000D+00
               11            12            13            14            15 
     11  0.183544D+00
     12  0.000000D+00  0.152803D-01
     13 -0.276929D-01  0.000000D+00  0.709983D-01
     14 -0.886724D-02  0.000000D+00 -0.369519D-01  0.445333D+00
     15  0.000000D+00 -0.113048D-02  0.000000D+00  0.000000D+00  0.154172D-01
     16  0.668406D-02  0.000000D+00  0.204884D-02 -0.525863D-02  0.000000D+00
     17 -0.163490D-02  0.000000D+00 -0.924610D-03  0.455366D-03  0.000000D+00
     18  0.000000D+00  0.577510D-02  0.000000D+00  0.000000D+00 -0.374415D-02
     19  0.236121D-03  0.000000D+00 -0.160323D-02  0.492383D-03  0.000000D+00
     20 -0.535641D-03  0.000000D+00 -0.492383D-03  0.749012D-03  0.000000D+00
     21  0.000000D+00 -0.549011D-03  0.000000D+00  0.000000D+00  0.113758D-03
     22  0.462828D-03  0.000000D+00 -0.115650D-03  0.224225D-03  0.000000D+00
     23  0.917609D-03  0.000000D+00 -0.236121D-03 -0.535641D-03  0.000000D+00
     24  0.000000D+00  0.317087D-02  0.000000D+00  0.000000D+00 -0.549011D-03
               16            17            18            19            20 
     16  0.882206D+00
     17  0.132935D-01  0.844425D+00
     18  0.000000D+00  0.000000D+00  0.633218D-01
     19 -0.801455D-01 -0.290208D-01  0.000000D+00  0.709983D-01
     20 -0.276631D-01 -0.429692D+00  0.000000D+00  0.369519D-01  0.445333D+00
     21  0.000000D+00  0.000000D+00 -0.187653D-01  0.000000D+00  0.000000D+00
     22 -0.327406D+00  0.169553D+00  0.000000D+00  0.102906D-01 -0.517143D-02
     23  0.173610D+00 -0.189948D+00  0.000000D+00  0.276929D-01 -0.886724D-02
     24  0.000000D+00  0.000000D+00 -0.121945D-01  0.000000D+00  0.000000D+00
               21            22            23            24 
     21  0.154172D-01
     22  0.000000D+00  0.341479D+00
     23  0.000000D+00 -0.176625D+00  0.183544D+00
     24 -0.113048D-02  0.000000D+00  0.000000D+00  0.152803D-01
 Force constants in internal coordinates: 
                1             2             3             4             5 
      1  0.358748D+00
      2  0.589469D-02  0.589313D+00
      3  0.589470D-02  0.578074D-01  0.589313D+00
      4  0.537625D-03  0.546215D-02 -0.597532D-02  0.455973D+00
      5 -0.146896D-02  0.852284D-02 -0.366196D-02 -0.226809D-03  0.448930D+00
      6 -0.146896D-02 -0.366196D-02  0.852284D-02  0.472003D-03  0.860172D-03
      7  0.537626D-03 -0.597532D-02  0.546215D-02  0.323084D-03  0.472003D-03
      8  0.350877D-02  0.809193D-02 -0.323937D-01 -0.236402D-02  0.364760D-02
      9  0.350877D-02 -0.323937D-01  0.809193D-02  0.652199D-03  0.856084D-03
     10 -0.701755D-02  0.243018D-01  0.243018D-01  0.171182D-02 -0.450369D-02
     11 -0.138837D-02  0.165267D-01  0.365381D-02  0.181182D-02 -0.796065D-02
     12  0.173803D-02  0.761818D-02 -0.101297D-02 -0.692397D-02  0.210716D-02
     13 -0.349659D-03 -0.241449D-01 -0.264084D-02  0.511214D-02  0.585348D-02
     14  0.173803D-02 -0.101297D-02  0.761818D-02 -0.154783D-03  0.921221D-03
     15 -0.138837D-02  0.365381D-02  0.165267D-01  0.156912D-03 -0.749025D-03
     16 -0.349660D-03 -0.264084D-02 -0.241449D-01 -0.212894D-05 -0.172197D-03
     17  0.000000D+00  0.000000D+00  0.000000D+00  0.000000D+00  0.000000D+00
     18  0.000000D+00  0.000000D+00  0.000000D+00  0.000000D+00  0.000000D+00
     19  0.000000D+00  0.000000D+00  0.000000D+00  0.000000D+00  0.000000D+00
     20  0.000000D+00  0.000000D+00  0.000000D+00  0.000000D+00  0.000000D+00
     21  0.000000D+00  0.000000D+00  0.000000D+00  0.000000D+00  0.000000D+00
     22  0.000000D+00  0.000000D+00  0.000000D+00  0.000000D+00  0.000000D+00
     23  0.000000D+00  0.000000D+00  0.000000D+00  0.000000D+00  0.000000D+00
     24  0.000000D+00  0.000000D+00  0.000000D+00  0.000000D+00  0.000000D+00
                6             7             8             9            10 
      6  0.448930D+00
      7 -0.226809D-03  0.455973D+00
      8  0.856084D-03  0.652199D-03  0.109977D+00
      9  0.364760D-02 -0.236402D-02 -0.356058D-01  0.109977D+00
     10 -0.450369D-02  0.171182D-02 -0.743716D-01 -0.743716D-01  0.148743D+00
     11 -0.749025D-03  0.156912D-03 -0.862246D-02 -0.385317D-02  0.124756D-01
     12  0.921221D-03 -0.154783D-03  0.982571D-02 -0.344261D-03 -0.948145D-02
     13 -0.172196D-03 -0.212877D-05 -0.120324D-02  0.419743D-02 -0.299419D-02
     14  0.210716D-02 -0.692397D-02 -0.344261D-03  0.982571D-02 -0.948145D-02
     15 -0.796065D-02  0.181182D-02 -0.385317D-02 -0.862246D-02  0.124756D-01
     16  0.585348D-02  0.511214D-02  0.419743D-02 -0.120324D-02 -0.299419D-02
     17  0.000000D+00  0.000000D+00  0.000000D+00  0.000000D+00  0.000000D+00
     18  0.000000D+00  0.000000D+00  0.000000D+00  0.000000D+00  0.000000D+00
     19  0.000000D+00  0.000000D+00  0.000000D+00  0.000000D+00  0.000000D+00
     20  0.000000D+00  0.000000D+00  0.000000D+00  0.000000D+00  0.000000D+00
     21  0.000000D+00  0.000000D+00  0.000000D+00  0.000000D+00  0.000000D+00
     22  0.000000D+00  0.000000D+00  0.000000D+00  0.000000D+00  0.000000D+00
     23  0.000000D+00  0.000000D+00  0.000000D+00  0.000000D+00  0.000000D+00
     24  0.000000D+00  0.000000D+00  0.000000D+00  0.000000D+00  0.000000D+00
               11            12            13            14            15 
     11  0.856835D-01
     12 -0.459396D-01  0.839243D-01
     13 -0.397438D-01 -0.379846D-01  0.777285D-01
     14 -0.165388D-02  0.247967D-02 -0.825795D-03  0.839243D-01
     15  0.219607D-02 -0.165388D-02 -0.542192D-03 -0.459396D-01  0.856835D-01
     16 -0.542192D-03 -0.825795D-03  0.136799D-02 -0.379846D-01 -0.397438D-01
     17  0.000000D+00  0.000000D+00  0.000000D+00  0.000000D+00  0.000000D+00
     18  0.000000D+00  0.000000D+00  0.000000D+00  0.000000D+00  0.000000D+00
     19  0.000000D+00  0.000000D+00  0.000000D+00  0.000000D+00  0.000000D+00
     20  0.000000D+00  0.000000D+00  0.000000D+00  0.000000D+00  0.000000D+00
     21  0.000000D+00  0.000000D+00  0.000000D+00  0.000000D+00  0.000000D+00
     22  0.000000D+00  0.000000D+00  0.000000D+00  0.000000D+00  0.000000D+00
     23  0.000000D+00  0.000000D+00  0.000000D+00  0.000000D+00  0.000000D+00
     24  0.000000D+00  0.000000D+00  0.000000D+00  0.000000D+00  0.000000D+00
               16            17            18            19            20 
     16  0.777285D-01
     17  0.000000D+00  0.103013D-01
     18  0.000000D+00  0.478194D-02  0.137507D-01
     19  0.000000D+00  0.375307D-02 -0.569823D-02  0.161459D-01
     20  0.000000D+00 -0.176625D-02  0.327053D-02  0.669461D-02  0.117314D-01
     21  0.000000D+00 -0.414526D-02 -0.581824D-02  0.633491D-02  0.466193D-02
     22  0.000000D+00 -0.399021D-02 -0.414526D-02  0.255798D-02  0.240293D-02
     23  0.000000D+00  0.240293D-02  0.466193D-02 -0.605793D-02 -0.379893D-02
     24  0.000000D+00  0.255798D-02  0.633491D-02 -0.983486D-02 -0.605793D-02
               21            22            23            24 
     21  0.137507D-01
     22  0.478194D-02  0.103013D-01
     23  0.327053D-02 -0.176625D-02  0.117314D-01
     24 -0.569823D-02  0.375307D-02  0.669461D-02  0.161459D-01
 Leave Link  716 at Thu Feb 26 01:39:53 2015, MaxMem= 1073741824 cpu:       0.2
 (Enter /apps/gaussian/g09_c01/g09/l103.exe)

 GradGradGradGradGradGradGradGradGradGradGradGradGradGradGradGradGradGrad
 Berny optimization.
 Red2BG is reusing G-inverse.
 Internal  Forces:  Max     0.013873053 RMS     0.004648595
 Search for a local minimum.
 Step number   1 out of a maximum of   34
 All quantities printed in internal units (Hartrees-Bohrs-Radians)
 RMS Force = .46486D-02 SwitMx=.10000D-02 MixMth= 1
 Mixed Optimization -- RFO/linear search
 Second derivative matrix not updated -- analytic derivatives used.
 ITU=  0
     Eigenvalues ---    0.01218   0.01325   0.01631   0.02071   0.04141
     Eigenvalues ---    0.11124   0.11621   0.12195   0.12700   0.14713
     Eigenvalues ---    0.22500   0.35928   0.44634   0.45050   0.45515
     Eigenvalues ---    0.45659   0.54029   0.65386
 RFO step:  Lambda=-8.83770865D-04 EMin= 1.21818562D-02
 Linear search not attempted -- first point.
 Iteration  1 RMS(Cart)=  0.01452942 RMS(Int)=  0.00001714
 Iteration  2 RMS(Cart)=  0.00002135 RMS(Int)=  0.00000000
 Iteration  3 RMS(Cart)=  0.00000000 RMS(Int)=  0.00000000
 ClnCor:  largest displacement from symmetrization is 1.80D-10 for atom     7.
 Variable       Old X    -DE/DX   Delta X   Delta X   Delta X     New X
                                 (Linear)    (Quad)   (Total)
    R1        2.05337  -0.00154   0.00000  -0.00373  -0.00373   2.04964
    R2        2.48365  -0.01387   0.00000  -0.02074  -0.02074   2.46291
    R3        2.48365  -0.01387   0.00000  -0.02074  -0.02074   2.46291
    R4        1.91586  -0.00551   0.00000  -0.01216  -0.01216   1.90370
    R5        1.91959  -0.00559   0.00000  -0.01236  -0.01236   1.90723
    R6        1.91959  -0.00559   0.00000  -0.01236  -0.01236   1.90723
    R7        1.91586  -0.00551   0.00000  -0.01216  -0.01216   1.90370
    A1        2.04681   0.00075   0.00000   0.00117   0.00117   2.04797
    A2        2.04681   0.00075   0.00000   0.00117   0.00117   2.04797
    A3        2.18957  -0.00150   0.00000  -0.00233  -0.00233   2.18724
    A4        2.09627  -0.00079   0.00000  -0.00338  -0.00338   2.09289
    A5        2.15059  -0.00046   0.00000  -0.00336  -0.00336   2.14723
    A6        2.03632   0.00124   0.00000   0.00675   0.00675   2.04306
    A7        2.15059  -0.00046   0.00000  -0.00336  -0.00336   2.14723
    A8        2.09627  -0.00079   0.00000  -0.00338  -0.00338   2.09289
    A9        2.03632   0.00124   0.00000   0.00675   0.00675   2.04306
    D1        0.00000   0.00000   0.00000   0.00000   0.00000   0.00000
    D2        3.14159   0.00000   0.00000   0.00000   0.00000   3.14159
    D3        3.14159   0.00000   0.00000   0.00000   0.00000   3.14159
    D4        0.00000   0.00000   0.00000   0.00000   0.00000   0.00000
    D5        3.14159   0.00000   0.00000   0.00000   0.00000   3.14159
    D6        0.00000   0.00000   0.00000   0.00000   0.00000   0.00000
    D7        0.00000   0.00000   0.00000   0.00000   0.00000   0.00000
    D8        3.14159   0.00000   0.00000   0.00000   0.00000   3.14159
         Item               Value     Threshold  Converged?
 Maximum Force            0.013873     0.000002     NO 
 RMS     Force            0.004649     0.000001     NO 
 Maximum Displacement     0.032273     0.000006     NO 
 RMS     Displacement     0.014520     0.000004     NO 
 Predicted change in Energy=-4.426025D-04
 GradGradGradGradGradGradGradGradGradGradGradGradGradGradGradGradGradGrad

 Leave Link  103 at Thu Feb 26 01:39:53 2015, MaxMem= 1073741824 cpu:       0.1
 (Enter /apps/gaussian/g09_c01/g09/l202.exe)
                          Input orientation:                          
 ---------------------------------------------------------------------
 Center     Atomic      Atomic             Coordinates (Angstroms)
 Number     Number       Type             X           Y           Z
 ---------------------------------------------------------------------
      1          6           0        0.000000    0.423643    0.000000
      2          1           0        0.000000    1.508264    0.000000
      3          7           0        1.157727   -0.174936    0.000000
      4          1           0        2.005025    0.369977    0.000000
      5          1           0        1.257738   -1.179231    0.000000
      6          7           0       -1.157727   -0.174936    0.000000
      7          1           0       -1.257738   -1.179231    0.000000
      8          1           0       -2.005025    0.369977    0.000000
 ---------------------------------------------------------------------
                    Distance matrix (angstroms):
                    1          2          3          4          5
     1  C    0.000000
     2  H    1.084621   0.000000
     3  N    1.303315   2.042913   0.000000
     4  H    2.005743   2.305606   1.007395   0.000000
     5  H    2.037427   2.967243   1.009262   1.720025   0.000000
     6  N    1.303315   2.042913   2.315455   3.209351   2.615928
     7  H    2.037427   2.967243   2.615928   3.611879   2.515476
     8  H    2.005743   2.305606   3.209351   4.010049   3.611879
                    6          7          8
     6  N    0.000000
     7  H    1.009262   0.000000
     8  H    1.007395   1.720025   0.000000
 Stoichiometry    CH5N2(1+)
 Framework group  C2V[C2(CH),SGV(H4N2)]
 Deg. of freedom     7
 Full point group                 C2V     NOp   4
 RotChk:  IX=0 Diff= 4.51D-16
 Largest Abelian subgroup         C2V     NOp   4
 Largest concise Abelian subgroup C2      NOp   2
                         Standard orientation:                         
 ---------------------------------------------------------------------
 Center     Atomic      Atomic             Coordinates (Angstroms)
 Number     Number       Type             X           Y           Z
 ---------------------------------------------------------------------
      1          6           0        0.000000    0.000000    0.424343
      2          1           0        0.000000    0.000000    1.508964
      3          7           0        0.000000    1.157727   -0.174237
      4          1           0        0.000000    2.005025    0.370677
      5          1           0        0.000000    1.257738   -1.178531
      6          7           0        0.000000   -1.157727   -0.174237
      7          1           0        0.000000   -1.257738   -1.178531
      8          1           0        0.000000   -2.005025    0.370677
 ---------------------------------------------------------------------
 Rotational constants (GHZ):     60.2924324     10.3499170      8.8335351
 Leave Link  202 at Thu Feb 26 01:39:53 2015, MaxMem= 1073741824 cpu:       0.0
 (Enter /apps/gaussian/g09_c01/g09/l301.exe)
 Standard basis: Aug-CC-pVQZ (5D, 7F)
 Ernie: Thresh=  0.10000D-02 Tol=  0.10000D-05 Strict=F.
 Ernie:  9 primitive shells out of 194 were deleted.
 There are   160 symmetry adapted basis functions of A1  symmetry.
 There are    78 symmetry adapted basis functions of A2  symmetry.
 There are    92 symmetry adapted basis functions of B1  symmetry.
 There are   140 symmetry adapted basis functions of B2  symmetry.
 Integral buffers will be    131072 words long.
 Raffenetti 2 integral format.
 Two-electron integral symmetry is turned on.
   470 basis functions,   657 primitive gaussians,   590 cartesian basis functions
    12 alpha electrons       12 beta electrons
       nuclear repulsion energy        80.0424797978 Hartrees.
 IExCor= 1009 DFT=T Ex+Corr=PBE1PBE ExCW=0 ScaHFX=  0.250000
 ScaDFX=  0.750000  0.750000  1.000000  1.000000 ScalE2=  1.000000  1.000000
 IRadAn=      5 IRanWt=     -1 IRanGd=            0 ICorTp=0
 NAtoms=    8 NActive=    8 NUniq=    5 SFac= 2.56D+00 NAtFMM=   60 NAOKFM=F Big=F
 Leave Link  301 at Thu Feb 26 01:39:53 2015, MaxMem= 1073741824 cpu:       0.3
 (Enter /apps/gaussian/g09_c01/g09/l302.exe)
 NPDir=0 NMtPBC=     1 NCelOv=     1 NCel=       1 NClECP=     1 NCelD=      1
         NCelK=      1 NCelE2=     1 NClLst=     1 CellRange=     0.0.
 One-electron integrals computed using PRISM.
 One-electron integral symmetry used in STVInt
 NBasis=   470 RedAO= T  NBF=   160    78    92   140
 NBsUse=   470 1.00D-06 NBFU=   160    78    92   140
 Precomputing XC quadrature grid using
 IXCGrd= 2 IRadAn=           5 IRanWt=          -1 IRanGd=           0 AccXCQ= 0.00D+00.
 NRdTot=     687 NPtTot=      185464 NUsed=      190390 NTot=      190422
 NSgBfM=   590   590   590   590   590 NAtAll=     8     8.
 Leave Link  302 at Thu Feb 26 01:39:53 2015, MaxMem= 1073741824 cpu:       3.4
 (Enter /apps/gaussian/g09_c01/g09/l303.exe)
 DipDrv:  MaxL=1.
 Leave Link  303 at Thu Feb 26 01:39:53 2015, MaxMem= 1073741824 cpu:       0.5
 (Enter /apps/gaussian/g09_c01/g09/l401.exe)
 Initial guess read from the read-write file.
 B after Tr=     0.000000    0.000000    0.000000
         Rot=    1.000000    0.000000    0.000000    0.000000 Ang=   0.00 deg.
 Guess basis will be translated and rotated to current coordinates.
 Initial guess orbital symmetries:
       Occupied  (B2) (A1) (A1) (A1) (B2) (A1) (A1) (B2) (B2) (A1)
                 (B1) (A2)
       Virtual   (B1) (A1) (A1) (B2) (B1) (A1) (B2) (A1) (B2) (A1)
                 (A2) (B1) (A1) (B2) (A1) (B2) (A1) (B2) (B1) (A1)
                 (A2) (A1) (B2) (B1) (B2) (A1) (B1) (A1) (A1) (A2)
                 (A1) (B2) (A1) (B2) (B1) (A2) (B2) (A1) (B2) (A1)
                 (A1) (B2) (B1) (B2) (A1) (B1) (A2) (B2) (B1) (A1)
                 (B2) (A2) (A1) (B2) (A1) (A1) (B2) (B1) (A1) (B2)
                 (A1) (A2) (A1) (B1) (A2) (B2) (A1) (B1) (A1) (B2)
                 (B1) (A2) (B1) (B2) (A1) (B2) (A1) (B2) (A1) (A2)
                 (A1) (B1) (A2) (B1) (A1) (B2) (B2) (A2) (A1) (A2)
                 (B1) (B2) (B2) (A1) (B2) (A1) (A2) (B2) (A1) (A1)
                 (B1) (B1) (A1) (B2) (B2) (A1) (A2) (A1) (B1) (B2)
                 (B2) (B1) (A1) (A2) (A1) (A1) (B1) (B2) (A2) (B1)
                 (A1) (B2) (A1) (B2) (A1) (B1) (B2) (A2) (A1) (B2)
                 (A2) (A1) (B2) (B1) (B1) (B2) (A1) (A2) (B2) (A1)
                 (B1) (A2) (A1) (B1) (B2) (B2) (A1) (A2) (B1) (B2)
                 (A1) (A2) (B2) (A1) (B1) (A1) (B2) (A1) (A2) (B2)
                 (A1) (A1) (B1) (A2) (B2) (B1) (A1) (A1) (B1) (B2)
                 (B1) (A1) (B2) (A2) (A2) (B1) (A2) (B2) (A1) (B2)
                 (A1) (B1) (B1) (A1) (B2) (A2) (A1) (B2) (A1) (B2)
                 (A1) (A2) (B2) (B1) (A2) (B2) (B2) (A1) (B1) (A2)
                 (A1) (B1) (B2) (A1) (A1) (A2) (B1) (B2) (B2) (A1)
                 (B1) (A2) (B2) (B1) (A1) (A1) (B2) (A1) (A2) (B2)
                 (B1) (B2) (A2) (B1) (B2) (A1) (A1) (A1) (B2) (A2)
                 (B1) (A1) (A2) (A1) (B2) (B1) (B2) (A1) (A2) (B2)
                 (A1) (A1) (B2) (B1) (B2) (A1) (A2) (B2) (B1) (B2)
                 (A1) (A2) (A1) (B1) (A2) (B2) (A1) (B1) (A1) (B2)
                 (A1) (B1) (A2) (A1) (B2) (A2) (B2) (A1) (B1) (A1)
                 (B2) (A2) (B1) (A1) (B2) (A1) (A2) (B2) (B1) (A1)
                 (B2) (A1) (B2) (A2) (B2) (B1) (A1) (B1) (A1) (A2)
                 (B2) (B2) (B1) (A2) (A1) (B2) (A1) (A1) (B2) (A1)
                 (B2) (A1) (B2) (A2) (B1) (B1) (A1) (B1) (B2) (B1)
                 (A1) (A2) (B2) (A1) (B1) (A2) (B1) (A1) (A2) (B2)
                 (A1) (B2) (B1) (A1) (B2) (A2) (B2) (A1) (A1) (B1)
                 (A2) (B1) (B2) (B1) (B2) (A1) (B2) (A2) (B1) (A1)
                 (A1) (A2) (B2) (A2) (A1) (B2) (A2) (A1) (B1) (B1)
                 (B2) (A2) (A1) (B1) (A1) (A2) (B2) (B1) (A1) (B1)
                 (A2) (B2) (A1) (B2) (A1) (A1) (B2) (A1) (B2) (B1)
                 (A2) (B2) (B1) (B2) (A2) (A1) (B1) (A2) (A1) (B2)
                 (B1) (B2) (A1) (A1) (B1) (A2) (B2) (A2) (B2) (A1)
                 (A1) (B2) (A1) (B2) (B1) (A2) (A1) (A1) (B2) (A2)
                 (B1) (B2) (A1) (B1) (B1) (A1) (B2) (A1) (A2) (A2)
                 (B1) (B2) (B2) (B1) (A2) (A2) (A1) (B1) (A1) (B2)
                 (A1) (B1) (A2) (B2) (A1) (B2) (A2) (A1) (B2) (B1)
                 (B2) (A1) (A1) (B2) (B2) (A1) (A1) (B1) (A2) (B1)
                 (A2) (B2) (A1) (B2) (A1) (B2) (A1) (A1) (B2) (A1)
                 (B2) (A1) (B2) (B2) (A1) (A1) (A1) (B2)
 The electronic state of the initial guess is 1-A1.
 Generating alternative initial guess.
 Harris functional with IExCor= 1009 diagonalized for initial guess.
 ExpMin= 2.36D-02 ExpMax= 4.58D+04 ExpMxC= 4.42D+02 IAcc=3 IRadAn=         5 AccDes= 0.00D+00
 HarFok:  IExCor= 1009 AccDes= 0.00D+00 IRadAn=         5 IDoV= 1
 ScaDFX=  1.000000  1.000000  1.000000  1.000000
 FoFCou: FMM=F IPFlag=           0 FMFlag=      100000 FMFlg1=           0
         NFxFlg=           0 DoJE=T BraDBF=F KetDBF=T FulRan=T
         Omega=  0.000000  0.000000  1.000000  0.000000  0.000000 ICntrl=     500 IOpCl=  0
         NMat0=    1 NMatS0=    1 NMatT0=    0 NMatD0=    1 NMtDS0=    0 NMtDT0=    0
         I1Cent=           4 NGrid=           0.
 Petite list used in FoFCou.
 Harris En= -150.358851061473    
 Leave Link  401 at Thu Feb 26 01:39:55 2015, MaxMem= 1073741824 cpu:      18.0
 (Enter /apps/gaussian/g09_c01/g09/l502.exe)
 Closed shell SCF:
 Requested convergence on RMS density matrix=1.00D-08 within 128 cycles.
 Requested convergence on MAX density matrix=1.00D-06.
 Requested convergence on             energy=1.00D-06.
 No special actions if energy rises.
 Using DIIS extrapolation, IDIIS=  1040.
 Integral symmetry usage will be decided dynamically.
       190305 words used for storage of precomputed grid.
 IEnd=     1262487 IEndB=     1262487 NGot=  1073741824 MDV=  1072844668
 LenX=  1072844668 LenY=  1072495978
 Fock matrices will be formed incrementally for  20 cycles.

 Cycle   1  Pass 1  IDiag  1:
 FoFCou: FMM=F IPFlag=           0 FMFlag=      100000 FMFlg1=           0
         NFxFlg=           0 DoJE=F BraDBF=F KetDBF=F FulRan=T
         Omega=  0.000000  0.000000  1.000000  0.000000  0.000000 ICntrl=       0 IOpCl=  0
         NMat0=    1 NMatS0=    1 NMatT0=    0 NMatD0=    1 NMtDS0=    0 NMtDT0=    0
         I1Cent=           0 NGrid=           0.
 Petite list used in FoFCou.
 E= -150.281357786403    
 DIIS: error= 8.44D-04 at cycle   1 NSaved=   1.
 NSaved= 1 IEnMin= 1 EnMin= -150.281357786403     IErMin= 1 ErrMin= 8.44D-04
 ErrMax= 8.44D-04 EMaxC= 1.00D-01 BMatC= 3.17D-04 BMatP= 3.17D-04
 IDIUse=3 WtCom= 9.92D-01 WtEn= 8.44D-03
 Coeff-Com:  0.100D+01
 Coeff-En:   0.100D+01
 Coeff:      0.100D+01
 Gap=     0.496 Goal=   None    Shift=    0.000
 RMSDP=3.97D-05 MaxDP=3.10D-03              OVMax= 3.75D-03

 Cycle   2  Pass 1  IDiag  1:
 RMSU=  2.81D-05    CP:  1.00D+00
 E= -150.281461369444     Delta-E=       -0.000103583041 Rises=F Damp=F
 DIIS: error= 4.67D-04 at cycle   2 NSaved=   2.
 NSaved= 2 IEnMin= 2 EnMin= -150.281461369444     IErMin= 2 ErrMin= 4.67D-04
 ErrMax= 4.67D-04 EMaxC= 1.00D-01 BMatC= 4.66D-05 BMatP= 3.17D-04
 IDIUse=3 WtCom= 9.95D-01 WtEn= 4.67D-03
 Coeff-Com:  0.190D+00 0.810D+00
 Coeff-En:   0.000D+00 0.100D+01
 Coeff:      0.189D+00 0.811D+00
 Gap=     0.299 Goal=   None    Shift=    0.000
 RMSDP=1.09D-05 MaxDP=6.64D-04 DE=-1.04D-04 OVMax= 2.32D-03

 Cycle   3  Pass 1  IDiag  1:
 RMSU=  7.52D-06    CP:  9.99D-01  9.80D-01
 E= -150.281479613871     Delta-E=       -0.000018244427 Rises=F Damp=F
 DIIS: error= 3.20D-04 at cycle   3 NSaved=   3.
 NSaved= 3 IEnMin= 3 EnMin= -150.281479613871     IErMin= 3 ErrMin= 3.20D-04
 ErrMax= 3.20D-04 EMaxC= 1.00D-01 BMatC= 2.41D-05 BMatP= 4.66D-05
 IDIUse=3 WtCom= 9.97D-01 WtEn= 3.20D-03
 Coeff-Com:  0.164D-02 0.417D+00 0.581D+00
 Coeff-En:   0.000D+00 0.336D+00 0.664D+00
 Coeff:      0.164D-02 0.417D+00 0.581D+00
 Gap=     0.300 Goal=   None    Shift=    0.000
 RMSDP=4.41D-06 MaxDP=2.60D-04 DE=-1.82D-05 OVMax= 1.06D-03

 Cycle   4  Pass 1  IDiag  1:
 RMSU=  1.04D-06    CP:  9.99D-01  1.00D+00  6.27D-01
 E= -150.281497868374     Delta-E=       -0.000018254503 Rises=F Damp=F
 DIIS: error= 6.59D-05 at cycle   4 NSaved=   4.
 NSaved= 4 IEnMin= 4 EnMin= -150.281497868374     IErMin= 4 ErrMin= 6.59D-05
 ErrMax= 6.59D-05 EMaxC= 1.00D-01 BMatC= 3.55D-07 BMatP= 2.41D-05
 IDIUse=1 WtCom= 1.00D+00 WtEn= 0.00D+00
 Coeff-Com: -0.140D-02 0.180D+00 0.266D+00 0.556D+00
 Coeff:     -0.140D-02 0.180D+00 0.266D+00 0.556D+00
 Gap=     0.300 Goal=   None    Shift=    0.000
 RMSDP=7.26D-07 MaxDP=6.45D-05 DE=-1.83D-05 OVMax= 2.93D-04

 Cycle   5  Pass 1  IDiag  1:
 RMSU=  4.40D-07    CP:  9.99D-01  9.99D-01  6.21D-01  7.59D-01
 E= -150.281498148056     Delta-E=       -0.000000279681 Rises=F Damp=F
 DIIS: error= 1.65D-05 at cycle   5 NSaved=   5.
 NSaved= 5 IEnMin= 5 EnMin= -150.281498148056     IErMin= 5 ErrMin= 1.65D-05
 ErrMax= 1.65D-05 EMaxC= 1.00D-01 BMatC= 2.26D-08 BMatP= 3.55D-07
 IDIUse=1 WtCom= 1.00D+00 WtEn= 0.00D+00
 Coeff-Com: -0.603D-03 0.123D-02 0.650D-02 0.207D+00 0.786D+00
 Coeff:     -0.603D-03 0.123D-02 0.650D-02 0.207D+00 0.786D+00
 Gap=     0.300 Goal=   None    Shift=    0.000
 RMSDP=1.60D-07 MaxDP=1.65D-05 DE=-2.80D-07 OVMax= 5.64D-05

 Cycle   6  Pass 1  IDiag  1:
 RMSU=  3.79D-08    CP:  9.99D-01  1.00D+00  6.26D-01  8.23D-01  8.46D-01
 E= -150.281498168092     Delta-E=       -0.000000020036 Rises=F Damp=F
 DIIS: error= 6.23D-07 at cycle   6 NSaved=   6.
 NSaved= 6 IEnMin= 6 EnMin= -150.281498168092     IErMin= 6 ErrMin= 6.23D-07
 ErrMax= 6.23D-07 EMaxC= 1.00D-01 BMatC= 4.34D-11 BMatP= 2.26D-08
 IDIUse=1 WtCom= 1.00D+00 WtEn= 0.00D+00
 Coeff-Com: -0.763D-04-0.113D-02-0.978D-03 0.233D-01 0.110D+00 0.869D+00
 Coeff:     -0.763D-04-0.113D-02-0.978D-03 0.233D-01 0.110D+00 0.869D+00
 Gap=     0.300 Goal=   None    Shift=    0.000
 RMSDP=1.08D-08 MaxDP=9.35D-07 DE=-2.00D-08 OVMax= 2.23D-06

 Cycle   7  Pass 1  IDiag  1:
 RMSU=  6.61D-09    CP:  9.99D-01  1.00D+00  6.26D-01  8.25D-01  8.51D-01
                    CP:  1.01D+00
 E= -150.281498168129     Delta-E=       -0.000000000037 Rises=F Damp=F
 DIIS: error= 1.58D-07 at cycle   7 NSaved=   7.
 NSaved= 7 IEnMin= 7 EnMin= -150.281498168129     IErMin= 7 ErrMin= 1.58D-07
 ErrMax= 1.58D-07 EMaxC= 1.00D-01 BMatC= 3.99D-12 BMatP= 4.34D-11
 IDIUse=1 WtCom= 1.00D+00 WtEn= 0.00D+00
 Coeff-Com:  0.633D-05-0.501D-03-0.763D-03-0.281D-02-0.508D-02 0.227D+00
 Coeff-Com:  0.783D+00
 Coeff:      0.633D-05-0.501D-03-0.763D-03-0.281D-02-0.508D-02 0.227D+00
 Coeff:      0.783D+00
 Gap=     0.300 Goal=   None    Shift=    0.000
 RMSDP=2.31D-09 MaxDP=1.68D-07 DE=-3.73D-11 OVMax= 4.93D-07

 SCF Done:  E(RPBE1PBE) =  -150.281498168     A.U. after    7 cycles
             Convg  =    0.2312D-08             -V/T =  2.0045
 KE= 1.496022149639D+02 PE=-5.040975542556D+02 EE= 1.241713613257D+02
 Leave Link  502 at Thu Feb 26 01:43:35 2015, MaxMem= 1073741824 cpu:    1750.4
 (Enter /apps/gaussian/g09_c01/g09/l801.exe)
 Range of M.O.s used for correlation:     1   470
 NBasis=   470 NAE=    12 NBE=    12 NFC=     0 NFV=     0
 NROrb=    470 NOA=    12 NOB=    12 NVA=   458 NVB=   458

 **** Warning!!: The largest alpha MO coefficient is  0.97933760D+02

 Leave Link  801 at Thu Feb 26 01:43:35 2015, MaxMem= 1073741824 cpu:       0.1
 (Enter /apps/gaussian/g09_c01/g09/l1002.exe)
 Minotr:  Closed shell wavefunction.
          Direct CPHF calculation.
          Differentiating once with respect to electric field.
                with respect to dipole field.
          Electric field/nuclear overlap derivatives assumed to be zero.
          Using symmetry in CPHF.
          Requested convergence is 1.0D-08 RMS, and 1.0D-07 maximum.
          Secondary convergence is 1.0D-12 RMS, and 1.0D-12 maximum.
          NewPWx=F KeepS1=T KeepF1=T KeepIn=T MapXYZ=F SortEE=F KeepMc=T.
          MDV=    1073741756 using IRadAn=       1.
 Generate precomputed XC quadrature information.
          Solving linear equations simultaneously, MaxMat=       0.
          There are     3 degrees of freedom in the 1st order CPHF.  IDoFFX=0.
      3 vectors produced by pass  0 Test12= 1.83D-13 3.33D-08 XBig12= 2.97D+01 4.56D+00.
 AX will form     3 AO Fock derivatives at one time.
 Integrals replicated using symmetry in FoFDir.
 MinBra= 0 MaxBra= 4 Meth= 1.
 IRaf=       0 NMat=   3 IRICut=       1 DoRegI=T DoRafI=F ISym2E= 2 JSym2E=2.
      3 vectors produced by pass  1 Test12= 1.83D-13 3.33D-08 XBig12= 7.91D+00 8.48D-01.
      3 vectors produced by pass  2 Test12= 1.83D-13 3.33D-08 XBig12= 8.27D-01 2.90D-01.
      3 vectors produced by pass  3 Test12= 1.83D-13 3.33D-08 XBig12= 1.92D-02 3.23D-02.
      3 vectors produced by pass  4 Test12= 1.83D-13 3.33D-08 XBig12= 8.48D-04 6.30D-03.
      3 vectors produced by pass  5 Test12= 1.83D-13 3.33D-08 XBig12= 1.56D-04 3.44D-03.
[...]
 
 
                                            Autjob by noodles.sh | Great noodly b
 asis sets
                                                            Raman Spectrum
 
     33  33           3                                                1  1  1      11       1 1 1                                   
     66  55           2                                                7  6  6      43       1 0 0         7   66 55                 
     99  87           1                                                9  9  1      28       3 8 3         2   30 51                 
     33  51           4                                                2  4  7      57       7 9 8         7   39 19                 
 
     XX  XX           X                                                X  X  X      XX       X X X         X    X  X                 
     XX  X            X                                                             X        X                                       
     XX  X            X                                                                                                              
     X   X            X                                                                                                              
         X            X                                                                                                              
         X            X                                                                                                              
         X            X                                                                                                              
         X                                                                                                                           
         X                                                                                                                           
         X                                                                                                                           
         X                                                                                                                           
         X                                                                                                                           
         X                                                                                                                           
         X                                                                                                                           
         X                                                                                                                           
         X                                                                                                                           
         X                                                                                                                           
         X                                                                                                                           
         X                                                                                                                           
         X                                                                                                                           
 
 ***** Axes restored to original set *****
 -------------------------------------------------------------------
 Center     Atomic                   Forces (Hartrees/Bohr)
 Number     Number              X              Y              Z
 -------------------------------------------------------------------
      1        6           0.000000000    0.000000116    0.000000000
      2        1           0.000000000   -0.000000063    0.000000000
      3        7          -0.000000086    0.000000012    0.000000000
      4        1           0.000000076    0.000000013    0.000000000
      5        1           0.000000033   -0.000000052    0.000000000
      6        7           0.000000086    0.000000012    0.000000000
      7        1          -0.000000033   -0.000000052    0.000000000
      8        1          -0.000000076    0.000000013    0.000000000
 -------------------------------------------------------------------
 Cartesian Forces:  Max     0.000000116 RMS     0.000000047
 Force constants in Cartesian coordinates: 
                1             2             3             4             5 
      1  0.962326D+00
      2  0.000000D+00  0.845042D+00
      3  0.000000D+00  0.000000D+00  0.170975D+00
      4 -0.640044D-01  0.000000D+00  0.000000D+00  0.701991D-01
      5  0.000000D+00 -0.346505D+00  0.000000D+00  0.000000D+00  0.362519D+00
      6  0.000000D+00  0.000000D+00 -0.551313D-01  0.000000D+00  0.000000D+00
      7 -0.424008D+00  0.163684D+00  0.000000D+00 -0.233667D-03  0.175623D-02
      8  0.149165D+00 -0.255600D+00  0.000000D+00  0.357342D-01 -0.103700D-01
      9  0.000000D+00  0.000000D+00 -0.535418D-01  0.000000D+00  0.000000D+00
     10 -0.277690D-01 -0.175244D-01  0.000000D+00  0.121093D-02  0.117384D-03
     11  0.168366D-01  0.160598D-01  0.000000D+00  0.101576D-02  0.772105D-03
     12  0.000000D+00  0.000000D+00 -0.592470D-02  0.000000D+00  0.000000D+00
     13  0.261651D-02  0.373710D-01  0.000000D+00 -0.407464D-02  0.966986D-03
     14  0.790456D-02 -0.972819D-02  0.000000D+00  0.100217D-02  0.159080D-02
     15  0.000000D+00  0.000000D+00  0.154480D-02  0.000000D+00  0.000000D+00
     16 -0.424008D+00 -0.163684D+00  0.000000D+00 -0.233667D-03 -0.175623D-02
     17 -0.149165D+00 -0.255600D+00  0.000000D+00 -0.357342D-01 -0.103700D-01
     18  0.000000D+00  0.000000D+00 -0.535418D-01  0.000000D+00  0.000000D+00
     19  0.261651D-02 -0.373710D-01  0.000000D+00 -0.407464D-02 -0.966986D-03
     20 -0.790456D-02 -0.972819D-02  0.000000D+00 -0.100217D-02  0.159080D-02
     21  0.000000D+00  0.000000D+00  0.154480D-02  0.000000D+00  0.000000D+00
     22 -0.277690D-01  0.175244D-01  0.000000D+00  0.121093D-02 -0.117384D-03
     23 -0.168366D-01  0.160598D-01  0.000000D+00 -0.101576D-02  0.772104D-03
     24  0.000000D+00  0.000000D+00 -0.592470D-02  0.000000D+00  0.000000D+00
                6             7             8             9            10 
      6  0.317930D-01
      7  0.000000D+00  0.923833D+00
      8  0.000000D+00 -0.204655D-01  0.873864D+00
      9  0.795836D-02  0.000000D+00  0.000000D+00  0.565570D-01
     10  0.000000D+00 -0.339042D+00 -0.178177D+00  0.000000D+00  0.353901D+00
     11  0.000000D+00 -0.182936D+00 -0.194933D+00  0.000000D+00  0.185610D+00
     12 -0.421378D-02  0.000000D+00  0.000000D+00 -0.103228D-01  0.000000D+00
     13  0.000000D+00 -0.788965D-01  0.292066D-01  0.000000D+00  0.105292D-01
     14  0.000000D+00  0.283456D-01 -0.447584D+00  0.000000D+00  0.526175D-02
     15  0.792461D-02  0.000000D+00  0.000000D+00 -0.168897D-01  0.000000D+00
     16  0.000000D+00 -0.857352D-01 -0.109760D-01  0.000000D+00  0.197910D-02
     17  0.000000D+00  0.109760D-01  0.356322D-01  0.000000D+00  0.539516D-02
     18  0.795836D-02  0.000000D+00  0.000000D+00  0.141849D-01  0.000000D+00
     19  0.000000D+00  0.210372D-02  0.908061D-03  0.000000D+00 -0.119273D-03
     20  0.000000D+00  0.542099D-02  0.580930D-03  0.000000D+00 -0.210089D-03
     21  0.792461D-02  0.000000D+00  0.000000D+00 -0.400134D-02  0.000000D+00
     22  0.000000D+00  0.197910D-02 -0.539516D-02  0.000000D+00 -0.690106D-03
     23  0.000000D+00 -0.678062D-02 -0.159091D-02  0.000000D+00 -0.472122D-03
     24 -0.421378D-02  0.000000D+00  0.000000D+00  0.605544D-02  0.000000D+00
               11            12            13            14            15 
     11  0.188081D+00
     12  0.000000D+00  0.130214D-01
     13 -0.280210D-01  0.000000D+00  0.694969D-01
     14 -0.876200D-02  0.000000D+00 -0.378380D-01  0.463675D+00
     15  0.000000D+00 -0.120325D-02  0.000000D+00  0.000000D+00  0.130233D-01
     16  0.678062D-02  0.000000D+00  0.210372D-02 -0.542099D-02  0.000000D+00
     17 -0.159091D-02  0.000000D+00 -0.908061D-03  0.580930D-03  0.000000D+00
     18  0.000000D+00  0.605544D-02  0.000000D+00  0.000000D+00 -0.400134D-02
     19  0.242635D-03  0.000000D+00 -0.165590D-02  0.534878D-03  0.000000D+00
     20 -0.533712D-03  0.000000D+00 -0.534878D-03  0.760759D-03  0.000000D+00
     21  0.000000D+00 -0.595801D-03  0.000000D+00  0.000000D+00  0.197349D-03
     22  0.472122D-03  0.000000D+00 -0.119273D-03  0.210089D-03  0.000000D+00
     23  0.906415D-03  0.000000D+00 -0.242635D-03 -0.533712D-03  0.000000D+00
     24  0.000000D+00  0.318350D-02  0.000000D+00  0.000000D+00 -0.595801D-03
               16            17            18            19            20 
     16  0.923833D+00
     17  0.204655D-01  0.873864D+00
     18  0.000000D+00  0.000000D+00  0.565570D-01
     19 -0.788965D-01 -0.292066D-01  0.000000D+00  0.694969D-01
     20 -0.283456D-01 -0.447584D+00  0.000000D+00  0.378380D-01  0.463675D+00
     21  0.000000D+00  0.000000D+00 -0.168897D-01  0.000000D+00  0.000000D+00
     22 -0.339042D+00  0.178177D+00  0.000000D+00  0.105292D-01 -0.526175D-02
     23  0.182936D+00 -0.194933D+00  0.000000D+00  0.280210D-01 -0.876200D-02
     24  0.000000D+00  0.000000D+00 -0.103228D-01  0.000000D+00  0.000000D+00
               21            22            23            24 
     21  0.130233D-01
     22  0.000000D+00  0.353901D+00
     23  0.000000D+00 -0.185610D+00  0.188081D+00
     24 -0.120325D-02  0.000000D+00  0.000000D+00  0.130214D-01
 Red2BG is reusing G-inverse.
 Force constants in internal coordinates: 
                1             2             3             4             5 
      1  0.362519D+00
      2  0.620065D-02  0.629544D+00
      3  0.620065D-02  0.601480D-01  0.629544D+00
      4  0.516410D-03  0.576290D-02 -0.599358D-02  0.474271D+00
      5 -0.148717D-02  0.885590D-02 -0.371572D-02 -0.311323D-03  0.467266D+00
      6 -0.148717D-02 -0.371572D-02  0.885590D-02  0.459981D-03  0.875541D-03
      7  0.516411D-03 -0.599358D-02  0.576291D-02  0.323663D-03  0.459981D-03
      8  0.368568D-02  0.767020D-02 -0.335062D-01 -0.254140D-02  0.380693D-02
      9  0.368568D-02 -0.335062D-01  0.767020D-02  0.671616D-03  0.935404D-03
     10 -0.737136D-02  0.258360D-01  0.258360D-01  0.186979D-02 -0.474233D-02
     11 -0.145565D-02  0.170274D-01  0.376788D-02  0.206762D-02 -0.809997D-02
     12  0.179584D-02  0.774066D-02 -0.106894D-02 -0.704514D-02  0.236507D-02
     13 -0.340195D-03 -0.247680D-01 -0.269893D-02  0.497752D-02  0.573490D-02
     14  0.179584D-02 -0.106894D-02  0.774066D-02 -0.159978D-03  0.973395D-03
     15 -0.145565D-02  0.376788D-02  0.170274D-01  0.172866D-03 -0.778530D-03
     16 -0.340196D-03 -0.269893D-02 -0.247680D-01 -0.128871D-04 -0.194864D-03
     17  0.000000D+00  0.000000D+00  0.000000D+00  0.000000D+00  0.000000D+00
     18  0.000000D+00  0.000000D+00  0.000000D+00  0.000000D+00  0.000000D+00
     19  0.000000D+00  0.000000D+00  0.000000D+00  0.000000D+00  0.000000D+00
     20  0.000000D+00  0.000000D+00  0.000000D+00  0.000000D+00  0.000000D+00
     21  0.000000D+00  0.000000D+00  0.000000D+00  0.000000D+00  0.000000D+00
     22  0.000000D+00  0.000000D+00  0.000000D+00  0.000000D+00  0.000000D+00
     23  0.000000D+00  0.000000D+00  0.000000D+00  0.000000D+00  0.000000D+00
     24  0.000000D+00  0.000000D+00  0.000000D+00  0.000000D+00  0.000000D+00
                6             7             8             9            10 
      6  0.467266D+00
      7 -0.311323D-03  0.474271D+00
      8  0.935404D-03  0.671616D-03  0.111937D+00
      9  0.380693D-02 -0.254140D-02 -0.355189D-01  0.111937D+00
     10 -0.474233D-02  0.186979D-02 -0.764180D-01 -0.764180D-01  0.152836D+00
     11 -0.778530D-03  0.172865D-03 -0.853980D-02 -0.390140D-02  0.124412D-01
     12  0.973395D-03 -0.159979D-03  0.973478D-02 -0.317260D-03 -0.941752D-02
     13 -0.194864D-03 -0.128870D-04 -0.119498D-02  0.421866D-02 -0.302369D-02
     14  0.236507D-02 -0.704514D-02 -0.317260D-03  0.973478D-02 -0.941752D-02
     15 -0.809997D-02  0.206762D-02 -0.390140D-02 -0.853981D-02  0.124412D-01
     16  0.573490D-02  0.497752D-02  0.421866D-02 -0.119498D-02 -0.302369D-02
     17  0.000000D+00  0.000000D+00  0.000000D+00  0.000000D+00  0.000000D+00
     18  0.000000D+00  0.000000D+00  0.000000D+00  0.000000D+00  0.000000D+00
     19  0.000000D+00  0.000000D+00  0.000000D+00  0.000000D+00  0.000000D+00
     20  0.000000D+00  0.000000D+00  0.000000D+00  0.000000D+00  0.000000D+00
     21  0.000000D+00  0.000000D+00  0.000000D+00  0.000000D+00  0.000000D+00
     22  0.000000D+00  0.000000D+00  0.000000D+00  0.000000D+00  0.000000D+00
     23  0.000000D+00  0.000000D+00  0.000000D+00  0.000000D+00  0.000000D+00
     24  0.000000D+00  0.000000D+00  0.000000D+00  0.000000D+00  0.000000D+00
               11            12            13            14            15 
     11  0.870993D-01
     12 -0.470400D-01  0.852124D-01
     13 -0.400593D-01 -0.381724D-01  0.782317D-01
     14 -0.166452D-02  0.251951D-02 -0.854992D-03  0.852124D-01
     15  0.218791D-02 -0.166452D-02 -0.523391D-03 -0.470400D-01  0.870993D-01
     16 -0.523391D-03 -0.854992D-03  0.137838D-02 -0.381724D-01 -0.400593D-01
     17  0.000000D+00  0.000000D+00  0.000000D+00  0.000000D+00  0.000000D+00
     18  0.000000D+00  0.000000D+00  0.000000D+00  0.000000D+00  0.000000D+00
     19  0.000000D+00  0.000000D+00  0.000000D+00  0.000000D+00  0.000000D+00
     20  0.000000D+00  0.000000D+00  0.000000D+00  0.000000D+00  0.000000D+00
     21  0.000000D+00  0.000000D+00  0.000000D+00  0.000000D+00  0.000000D+00
     22  0.000000D+00  0.000000D+00  0.000000D+00  0.000000D+00  0.000000D+00
     23  0.000000D+00  0.000000D+00  0.000000D+00  0.000000D+00  0.000000D+00
     24  0.000000D+00  0.000000D+00  0.000000D+00  0.000000D+00  0.000000D+00
               16            17            18            19            20 
     16  0.782317D-01
     17  0.000000D+00  0.107745D-01
     18  0.000000D+00  0.464732D-02  0.141290D-01
     19  0.000000D+00  0.401310D-02 -0.600615D-02  0.166657D-01
     20  0.000000D+00 -0.211405D-02  0.347552D-02  0.664643D-02  0.122360D-01
     21  0.000000D+00 -0.424812D-02 -0.592625D-02  0.640535D-02  0.472722D-02
     22  0.000000D+00 -0.407528D-02 -0.424812D-02  0.268609D-02  0.251325D-02
     23  0.000000D+00  0.251325D-02  0.472722D-02 -0.624723D-02 -0.403326D-02
     24  0.000000D+00  0.268609D-02  0.640535D-02 -0.996649D-02 -0.624723D-02
               21            22            23            24 
     21  0.141290D-01
     22  0.464732D-02  0.107745D-01
     23  0.347552D-02 -0.211405D-02  0.122360D-01
     24 -0.600615D-02  0.401310D-02  0.664643D-02  0.166657D-01
 Leave Link  716 at Thu Feb 26 05:08:27 2015, MaxMem= 1073741824 cpu:       0.1
 (Enter /apps/gaussian/g09_c01/g09/l9999.exe)
 1\1\GINC-CX1-3-13-4\Freq\RPBE1PBE\Aug-CC-pVQZ\C1H5N2(1+)\JMF02\26-Feb-
 2015\0\\#p opt(VeryTight,CalcAll,Raman) Integral(Grid=UltraFine) PBE1P
 BE/AUG-cc-pVQZ\\Autjob by noodles.sh | Great noodly basis sets\\1,1\C,
 0.,0.4237487459,0.\H,0.,1.5083719768,0.\N,1.1580377724,-0.1749732794,0
 .\H,2.0053969755,0.3700606935,0.\H,1.2580443368,-1.1793847754,0.\N,-1.
 1580377724,-0.1749732794,0.\H,-1.2580443368,-1.1793847754,0.\H,-2.0053
 969755,0.3700606935,0.\\Version=EM64L-G09RevC.01\State=1-A1\HF=-150.28
 14985\RMSD=2.211e-09\RMSF=4.652e-08\ZeroPoint=0.0728368\Thermal=0.0765
 692\Dipole=0.,-0.0845147,0.\DipoleDeriv=1.9311769,0.,0.,0.,0.3932032,0
 .,0.,0.,0.2932655,0.0915095,0.,0.,0.,0.1445823,0.,0.,0.,0.153686,-1.10
 27928,0.0582005,0.,0.4630607,-0.2850216,0.,0.,0.,-0.3787218,0.3930122,
 0.0555949,0.,0.1075792,0.216052,0.,0.,0.,0.3264353,0.1984374,-0.060168
 8,0.,-0.1166301,0.3000769,0.,0.,0.,0.3288108,-1.1027928,-0.0582005,0.,
 -0.4630607,-0.2850216,0.,0.,0.,-0.3787218,0.1984374,0.0601688,0.,0.116
 6301,0.3000769,0.,0.,0.,0.3288108,0.3930122,-0.0555949,0.,-0.1075792,0
 .216052,0.,0.,0.,0.3264353\Polar=36.6355965,0.,24.6674005,0.,0.,18.041
 4337\PolarDeriv=0.,1.0299925,0.,0.,0.,0.,5.6407268,0.,-3.6165118,0.,0.
 ,1.4691155,0.,0.,0.,0.,1.3888447,0.,0.,0.8649271,0.,0.,0.,0.,0.9351333
 ,0.,7.2699902,0.,0.,1.26568,0.,0.,0.,0.,0.8485097,0.,2.9992294,-1.0895
 595,-0.352344,0.,0.,1.6900108,-3.5884043,-0.3425825,2.993115,0.,0.,-0.
 8562685,0.,0.,0.,3.5956775,-0.8328602,0.,6.6780042,1.1552385,1.6719869
 ,0.,0.,0.9195265,2.5702116,1.7670097,1.2635123,0.,0.,0.5480641,0.,0.,0
 .,0.3362217,0.216883,0.,2.0029149,-1.0131388,0.4833294,0.,0.,0.2072621
 ,-2.2697373,2.148916,-6.0833666,0.,0.,-1.0591933,0.,0.,0.,0.0647472,-0
 .5027,0.,-2.9992295,-1.0895595,0.352344,0.,0.,-1.6900108,-3.5884043,0.
 3425825,2.9931151,0.,0.,-0.8562685,0.,0.,0.,-3.5956775,-0.8328602,0.,-
 2.0029149,-1.0131388,-0.4833294,0.,0.,-0.2072621,-2.2697373,-2.148916,
 -6.0833666,0.,0.,-1.0591933,0.,0.,0.,-0.0647472,-0.5027,0.,-6.6780042,
 1.1552385,-1.6719869,0.,0.,-0.9195265,2.5702116,-1.7670097,1.2635123,0
 .,0.,0.5480641,0.,0.,0.,-0.3362217,0.216883,0.\HyperPolar=0.,27.132486
 2,0.,-5.3386956,0.,0.,0.,0.,0.2052321,0.\PG=C02V [C2(C1H1),SGV(H4N2)]\
 NImag=0\\0.96232576,0.,0.84504164,0.,0.,0.17097476,-0.06400436,0.,0.,0
 .07019911,0.,-0.34650506,0.,0.,0.36251918,0.,0.,-0.05513135,0.,0.,0.03
 179298,-0.42400823,0.16368367,0.,-0.00023367,0.00175623,0.,0.92383305,
 0.14916512,-0.25559995,0.,0.03573419,-0.01036996,0.,-0.02046548,0.8738
 6446,0.,0.,-0.05354181,0.,0.,0.00795836,0.,0.,0.05655695,-0.02776898,-
 0.01752437,0.,0.00121093,0.00011738,0.,-0.33904222,-0.17817732,0.,0.35
 390138,0.01683662,0.01605985,0.,0.00101576,0.00077210,0.,-0.18293640,-
 0.19493322,0.,0.18560961,0.18808147,0.,0.,-0.00592470,0.,0.,-0.0042137
 8,0.,0.,-0.01032282,0.,0.,0.01302141,0.00261651,0.03737099,0.,-0.00407
 464,0.00096699,0.,-0.07889652,0.02920661,0.,0.01052915,-0.02802097,0.,
 0.06949694,0.00790456,-0.00972819,0.,0.00100217,0.00159080,0.,0.028345
 59,-0.44758360,0.,0.00526175,-0.00876200,0.,-0.03783804,0.46367501,0.,
 0.,0.00154480,0.,0.,0.00792461,0.,0.,-0.01688969,0.,0.,-0.00120325,0.,
 0.,0.01302333,-0.42400823,-0.16368367,0.,-0.00023367,-0.00175623,0.,-0
 .08573525,-0.01097602,0.,0.00197910,0.00678062,0.,0.00210372,-0.005420
 99,0.,0.92383305,-0.14916512,-0.25559995,0.,-0.03573419,-0.01036996,0.
 ,0.01097602,0.03563224,0.,0.00539516,-0.00159091,0.,-0.00090806,0.0005
 8093,0.,0.02046548,0.87386446,0.,0.,-0.05354181,0.,0.,0.00795836,0.,0.
 ,0.01418491,0.,0.,0.00605544,0.,0.,-0.00400134,0.,0.,0.05655695,0.0026
 1651,-0.03737099,0.,-0.00407464,-0.00096699,0.,0.00210372,0.00090806,0
 .,-0.00011927,0.00024263,0.,-0.00165590,0.00053488,0.,-0.07889652,-0.0
 2920661,0.,0.06949694,-0.00790456,-0.00972819,0.,-0.00100217,0.0015908
 0,0.,0.00542099,0.00058093,0.,-0.00021009,-0.00053371,0.,-0.00053488,0
 .00076076,0.,-0.02834559,-0.44758360,0.,0.03783804,0.46367501,0.,0.,0.
 00154480,0.,0.,0.00792461,0.,0.,-0.00400134,0.,0.,-0.00059580,0.,0.,0.
 00019735,0.,0.,-0.01688969,0.,0.,0.01302333,-0.02776898,0.01752437,0.,
 0.00121093,-0.00011738,0.,0.00197910,-0.00539516,0.,-0.00069011,0.0004
 7212,0.,-0.00011927,0.00021009,0.,-0.33904222,0.17817732,0.,0.01052915
 ,-0.00526175,0.,0.35390138,-0.01683662,0.01605985,0.,-0.00101576,0.000
 77210,0.,-0.00678062,-0.00159091,0.,-0.00047212,0.00090641,0.,-0.00024
 263,-0.00053371,0.,0.18293640,-0.19493322,0.,0.02802097,-0.00876200,0.
 ,-0.18560961,0.18808147,0.,0.,-0.00592470,0.,0.,-0.00421378,0.,0.,0.00
 605544,0.,0.,0.00318350,0.,0.,-0.00059580,0.,0.,-0.01032282,0.,0.,-0.0
 0120325,0.,0.,0.01302141\\0.,-0.00000012,0.,0.,0.00000006,0.,0.0000000
 9,-0.00000001,0.,-0.00000008,-0.00000001,0.,-0.00000003,0.00000005,0.,
 -0.00000009,-0.00000001,0.,0.00000003,0.00000005,0.,0.00000008,-0.0000
 0001,0.\\\@


 THE NUMBERS ARE MEANINGLESS, BUT THE TRENDS ARE IMPORTANT.
     -- LARRY BURGGRAF
 Job cpu time:  1 days 13 hours 10 minutes 20.5 seconds.
 File lengths (MBytes):  RWF=    178 Int=      0 D2E=      0 Chk=     15 Scr=      1
 Normal termination of Gaussian 09 at Thu Feb 26 05:08:27 2015.
