 Entering Gaussian System, Link 0=g03
 Input=FORMA_b3lyp_AUG-cc-pVQZ.com
 Output=FORMA_b3lyp_AUG-cc-pVQZ.log
 Initial command:
 /apps/gaussian/g09_c01/g09/l1.exe /tmp/pbs.8910277.cx1b/Gau-21121.inp -scrdir=/tmp/pbs.8910277.cx1b/
 Entering Link 1 = /apps/gaussian/g09_c01/g09/l1.exe PID=     21126.
  
 Copyright (c) 1988,1990,1992,1993,1995,1998,2003,2009,2011,
            Gaussian, Inc.  All Rights Reserved.
  
 This is part of the Gaussian(R) 09 program.  It is based on
 the Gaussian(R) 03 system (copyright 2003, Gaussian, Inc.),
 the Gaussian(R) 98 system (copyright 1998, Gaussian, Inc.),
 the Gaussian(R) 94 system (copyright 1995, Gaussian, Inc.),
 the Gaussian 92(TM) system (copyright 1992, Gaussian, Inc.),
 the Gaussian 90(TM) system (copyright 1990, Gaussian, Inc.),
 the Gaussian 88(TM) system (copyright 1988, Gaussian, Inc.),
 the Gaussian 86(TM) system (copyright 1986, Carnegie Mellon
 University), and the Gaussian 82(TM) system (copyright 1983,
 Carnegie Mellon University). Gaussian is a federally registered
 trademark of Gaussian, Inc.
  
 This software contains proprietary and confidential information,
 including trade secrets, belonging to Gaussian, Inc.
  
 This software is provided under written license and may be
 used, copied, transmitted, or stored only in accord with that
 written license.
  
 The following legend is applicable only to US Government
 contracts under FAR:
  
                    RESTRICTED RIGHTS LEGEND
  
 Use, reproduction and disclosure by the US Government is
 subject to restrictions as set forth in subparagraphs (a)
 and (c) of the Commercial Computer Software - Restricted
 Rights clause in FAR 52.227-19.
  
 Gaussian, Inc.
 340 Quinnipiac St., Bldg. 40, Wallingford CT 06492
  
  
 ---------------------------------------------------------------
 Warning -- This program may not be used in any manner that
 competes with the business of Gaussian, Inc. or will provide
 assistance to any competitor of Gaussian, Inc.  The licensee
 of this program is prohibited from giving any competitor of
 Gaussian, Inc. access to this program.  By using this program,
 the user acknowledges that Gaussian, Inc. is engaged in the
 business of creating and licensing software in the field of
 computational chemistry and represents and warrants to the
 licensee that it is not a competitor of Gaussian, Inc. and that
 it will not use this program in any manner prohibited above.
 ---------------------------------------------------------------
  

 Cite this work as:
 Gaussian 09, Revision C.01,
 M. J. Frisch, G. W. Trucks, H. B. Schlegel, G. E. Scuseria, 
 M. A. Robb, J. R. Cheeseman, G. Scalmani, V. Barone, B. Mennucci, 
 G. A. Petersson, H. Nakatsuji, M. Caricato, X. Li, H. P. Hratchian, 
 A. F. Izmaylov, J. Bloino, G. Zheng, J. L. Sonnenberg, M. Hada, 
 M. Ehara, K. Toyota, R. Fukuda, J. Hasegawa, M. Ishida, T. Nakajima, 
 Y. Honda, O. Kitao, H. Nakai, T. Vreven, J. A. Montgomery, Jr., 
 J. E. Peralta, F. Ogliaro, M. Bearpark, J. J. Heyd, E. Brothers, 
 K. N. Kudin, V. N. Staroverov, T. Keith, R. Kobayashi, J. Normand, 
 K. Raghavachari, A. Rendell, J. C. Burant, S. S. Iyengar, J. Tomasi, 
 M. Cossi, N. Rega, J. M. Millam, M. Klene, J. E. Knox, J. B. Cross, 
 V. Bakken, C. Adamo, J. Jaramillo, R. Gomperts, R. E. Stratmann, 
 O. Yazyev, A. J. Austin, R. Cammi, C. Pomelli, J. W. Ochterski, 
 R. L. Martin, K. Morokuma, V. G. Zakrzewski, G. A. Voth, 
 P. Salvador, J. J. Dannenberg, S. Dapprich, A. D. Daniels, 
 O. Farkas, J. B. Foresman, J. V. Ortiz, J. Cioslowski, 
 and D. J. Fox, Gaussian, Inc., Wallingford CT, 2010.
 
 ******************************************
 Gaussian 09:  EM64L-G09RevC.01 23-Sep-2011
                26-Feb-2015 
 ******************************************
 %Chk=FORMA_b3lyp_AUG-cc-pVQZ.chk
 %Mem=8Gb
 %nproc=8
 Will use up to    8 processors via shared memory.
 ----------------------------------------------------------------------
 #p opt(VeryTight,CalcAll,Raman) Integral(Grid=UltraFine) b3lyp/AUG-cc-
 pVQZ
 ----------------------------------------------------------------------
 1/7=1,10=4,14=-1,18=20,19=15,26=3,38=1/1,3;
 2/9=110,12=2,17=6,18=5,40=1/2;
 3/5=16,6=2,7=10,11=2,16=1,25=1,30=1,71=2,74=-5,75=-5/1,2,3;
 4//1;
 5/5=2,38=5/2;
 8/6=4,10=90,11=11/1;
 10/13=10,15=4/2;
 11/6=3,8=1,9=11,15=111,16=1/1,2,10;
 10/6=1/2;
 6/7=2,8=2,9=2,10=2,18=1,28=1/1;
 7/10=1,25=1/1,2,3,16;
 1/7=1,10=4,14=-1,18=20,19=15/3(3);
 2/9=110/2;
 7/8=1,9=1,25=1,44=-1/16;
 99//99;
 2/9=110/2;
 3/5=16,6=2,7=10,11=2,16=1,25=1,30=1,71=2,74=-5,75=-5/1,2,3;
 4/5=5,16=3/1;
 5/5=2,38=5/2;
 8/6=4,10=90,11=11/1;
 10/13=10,15=4/2;
 11/6=3,8=1,9=11,15=111,16=1/1,2,10;
 10/6=1/2;
 7/10=1,25=1/1,2,3,16;
 1/7=1,10=4,14=-1,18=20,19=15/3(-9);
 2/9=110/2;
 6/7=2,8=2,9=2,10=2,18=1,19=2,28=1/1;
 7/8=1,9=1,25=1,44=-1/16;
 99//99;
 Leave Link    1 at Thu Feb 26 00:06:21 2015, MaxMem= 1073741824 cpu:       0.3
 (Enter /apps/gaussian/g09_c01/g09/l101.exe)
 ----------------------------------------------
 Autjob by noodles.sh | Great noodly basis sets
 ----------------------------------------------
 Charge =  1 Multiplicity = 1
 Symbolic Z-Matrix:
 C                     0.        0.42727   0. 
 H                     0.        1.51386   0. 
 N                     1.16818  -0.17499   0. 
 H                     2.0221    0.37151   0. 
 H                     1.27341  -1.18533   0. 
 N                    -1.16818  -0.17499   0. 
 H                    -1.27341  -1.18533   0. 
 H                    -2.0221    0.37151   0. 
 
 NAtoms=      8 NQM=        0 NQMF=       0 NMMI=      8 NMMIF=      0
                NMic=       0 NMicF=      0.
                    Isotopes and Nuclear Properties:
 (Nuclear quadrupole moments (NQMom) in fm**2, nuclear magnetic moments (NMagM)
  in nuclear magnetons)

  Atom         1           2           3           4           5           6           7           8
 IAtWgt=          12           1          14           1           1          14           1           1
 AtmWgt=  12.0000000   1.0078250  14.0030740   1.0078250   1.0078250  14.0030740   1.0078250   1.0078250
 NucSpn=           0           1           2           1           1           2           1           1
 AtZEff=   0.0000000   0.0000000   0.0000000   0.0000000   0.0000000   0.0000000   0.0000000   0.0000000
 NQMom=    0.0000000   0.0000000   2.0440000   0.0000000   0.0000000   2.0440000   0.0000000   0.0000000
 NMagM=    0.0000000   2.7928460   0.4037610   2.7928460   2.7928460   0.4037610   2.7928460   2.7928460
 Leave Link  101 at Thu Feb 26 00:06:21 2015, MaxMem= 1073741824 cpu:       0.9
 (Enter /apps/gaussian/g09_c01/g09/l103.exe)

 GradGradGradGradGradGradGradGradGradGradGradGradGradGradGradGradGradGrad
 Berny optimization.
 Initialization pass.
                           ----------------------------
                           !    Initial Parameters    !
                           ! (Angstroms and Degrees)  !
 --------------------------                            --------------------------
 ! Name  Definition              Value          Derivative Info.                !
 --------------------------------------------------------------------------------
 ! R1    R(1,2)                  1.0866         calculate D2E/DX2 analytically  !
 ! R2    R(1,3)                  1.3143         calculate D2E/DX2 analytically  !
 ! R3    R(1,6)                  1.3143         calculate D2E/DX2 analytically  !
 ! R4    R(3,4)                  1.0138         calculate D2E/DX2 analytically  !
 ! R5    R(3,5)                  1.0158         calculate D2E/DX2 analytically  !
 ! R6    R(6,7)                  1.0158         calculate D2E/DX2 analytically  !
 ! R7    R(6,8)                  1.0138         calculate D2E/DX2 analytically  !
 ! A1    A(2,1,3)              117.2736         calculate D2E/DX2 analytically  !
 ! A2    A(2,1,6)              117.2736         calculate D2E/DX2 analytically  !
 ! A3    A(3,1,6)              125.4529         calculate D2E/DX2 analytically  !
 ! A4    A(1,3,4)              120.1077         calculate D2E/DX2 analytically  !
 ! A5    A(1,3,5)              123.2199         calculate D2E/DX2 analytically  !
 ! A6    A(4,3,5)              116.6724         calculate D2E/DX2 analytically  !
 ! A7    A(1,6,7)              123.2199         calculate D2E/DX2 analytically  !
 ! A8    A(1,6,8)              120.1077         calculate D2E/DX2 analytically  !
 ! A9    A(7,6,8)              116.6724         calculate D2E/DX2 analytically  !
 ! D1    D(2,1,3,4)              0.0            calculate D2E/DX2 analytically  !
 ! D2    D(2,1,3,5)            180.0            calculate D2E/DX2 analytically  !
 ! D3    D(6,1,3,4)            180.0            calculate D2E/DX2 analytically  !
 ! D4    D(6,1,3,5)              0.0            calculate D2E/DX2 analytically  !
 ! D5    D(2,1,6,7)            180.0            calculate D2E/DX2 analytically  !
 ! D6    D(2,1,6,8)              0.0            calculate D2E/DX2 analytically  !
 ! D7    D(3,1,6,7)              0.0            calculate D2E/DX2 analytically  !
 ! D8    D(3,1,6,8)            180.0            calculate D2E/DX2 analytically  !
 --------------------------------------------------------------------------------
 Trust Radius=3.00D-01 FncErr=1.00D-07 GrdErr=1.00D-06
 Number of steps in this run=     34 maximum allowed number of steps=    100.
 GradGradGradGradGradGradGradGradGradGradGradGradGradGradGradGradGradGrad

 Leave Link  103 at Thu Feb 26 00:06:21 2015, MaxMem= 1073741824 cpu:       0.0
 (Enter /apps/gaussian/g09_c01/g09/l202.exe)
                          Input orientation:                          
 ---------------------------------------------------------------------
 Center     Atomic      Atomic             Coordinates (Angstroms)
 Number     Number       Type             X           Y           Z
 ---------------------------------------------------------------------
      1          6           0        0.000000    0.427270    0.000000
      2          1           0        0.000000    1.513864    0.000000
      3          7           0        1.168180   -0.174990    0.000000
      4          1           0        2.022103    0.371511    0.000000
      5          1           0        1.273414   -1.185325    0.000000
      6          7           0       -1.168180   -0.174990    0.000000
      7          1           0       -1.273414   -1.185325    0.000000
      8          1           0       -2.022103    0.371511    0.000000
 ---------------------------------------------------------------------
                    Distance matrix (angstroms):
                    1          2          3          4          5
     1  C    0.000000
     2  H    1.086594   0.000000
     3  N    1.314291   2.053502   0.000000
     4  H    2.022872   2.322471   1.013828   0.000000
     5  H    2.054762   2.984494   1.015801   1.727505   0.000000
     6  N    1.314291   2.053502   2.336360   3.236753   2.642377
     7  H    2.054762   2.984494   2.642377   3.644746   2.546828
     8  H    2.022872   2.322471   3.236753   4.044206   3.644746
                    6          7          8
     6  N    0.000000
     7  H    1.015801   0.000000
     8  H    1.013828   1.727505   0.000000
 Stoichiometry    CH5N2(1+)
 Framework group  C2V[C2(CH),SGV(H4N2)]
 Deg. of freedom     7
 Full point group                 C2V     NOp   4
 Largest Abelian subgroup         C2V     NOp   4
 Largest concise Abelian subgroup C2      NOp   2
                         Standard orientation:                         
 ---------------------------------------------------------------------
 Center     Atomic      Atomic             Coordinates (Angstroms)
 Number     Number       Type             X           Y           Z
 ---------------------------------------------------------------------
      1          6           0        0.000000    0.000000    0.427270
      2          1           0        0.000000    0.000000    1.513864
      3          7           0        0.000000    1.168180   -0.174990
      4          1           0        0.000000    2.022103    0.371511
      5          1           0        0.000000    1.273414   -1.185325
      6          7           0        0.000000   -1.168180   -0.174990
      7          1           0        0.000000   -1.273414   -1.185325
      8          1           0        0.000000   -2.022103    0.371511
 ---------------------------------------------------------------------
 Rotational constants (GHZ):     59.6815563     10.1627081      8.6839806
 Leave Link  202 at Thu Feb 26 00:06:21 2015, MaxMem= 1073741824 cpu:       0.0
 (Enter /apps/gaussian/g09_c01/g09/l301.exe)
 Standard basis: Aug-CC-pVQZ (5D, 7F)
 Ernie: Thresh=  0.10000D-02 Tol=  0.10000D-05 Strict=F.
 Ernie:  9 primitive shells out of 194 were deleted.
 There are   160 symmetry adapted basis functions of A1  symmetry.
 There are    78 symmetry adapted basis functions of A2  symmetry.
 There are    92 symmetry adapted basis functions of B1  symmetry.
 There are   140 symmetry adapted basis functions of B2  symmetry.
 Integral buffers will be    131072 words long.
 Raffenetti 2 integral format.
 Two-electron integral symmetry is turned on.
   470 basis functions,   657 primitive gaussians,   590 cartesian basis functions
    12 alpha electrons       12 beta electrons
       nuclear repulsion energy        79.4241064683 Hartrees.
 IExCor=  402 DFT=T Ex+Corr=B3LYP ExCW=0 ScaHFX=  0.200000
 ScaDFX=  0.800000  0.720000  1.000000  0.810000 ScalE2=  1.000000  1.000000
 IRadAn=      5 IRanWt=     -1 IRanGd=            0 ICorTp=0
 NAtoms=    8 NActive=    8 NUniq=    5 SFac= 2.56D+00 NAtFMM=   60 NAOKFM=F Big=F
 Leave Link  301 at Thu Feb 26 00:06:21 2015, MaxMem= 1073741824 cpu:       0.3
 (Enter /apps/gaussian/g09_c01/g09/l302.exe)
 NPDir=0 NMtPBC=     1 NCelOv=     1 NCel=       1 NClECP=     1 NCelD=      1
         NCelK=      1 NCelE2=     1 NClLst=     1 CellRange=     0.0.
 One-electron integrals computed using PRISM.
 One-electron integral symmetry used in STVInt
 NBasis=   470 RedAO= T  NBF=   160    78    92   140
 NBsUse=   470 1.00D-06 NBFU=   160    78    92   140
 Precomputing XC quadrature grid using
 IXCGrd= 2 IRadAn=           5 IRanWt=          -1 IRanGd=           0 AccXCQ= 0.00D+00.
 NRdTot=     687 NPtTot=      185464 NUsed=      190390 NTot=      190422
 NSgBfM=   590   590   590   590   590 NAtAll=     8     8.
 Leave Link  302 at Thu Feb 26 00:06:21 2015, MaxMem= 1073741824 cpu:       3.2
 (Enter /apps/gaussian/g09_c01/g09/l303.exe)
 DipDrv:  MaxL=1.
 Leave Link  303 at Thu Feb 26 00:06:21 2015, MaxMem= 1073741824 cpu:       0.5
 (Enter /apps/gaussian/g09_c01/g09/l401.exe)
 Harris functional with IExCor=  402 diagonalized for initial guess.
 ExpMin= 2.36D-02 ExpMax= 4.58D+04 ExpMxC= 4.42D+02 IAcc=3 IRadAn=         5 AccDes= 0.00D+00
 HarFok:  IExCor=  402 AccDes= 0.00D+00 IRadAn=         5 IDoV= 1
 ScaDFX=  1.000000  1.000000  1.000000  1.000000
 FoFCou: FMM=F IPFlag=           0 FMFlag=      100000 FMFlg1=           0
         NFxFlg=           0 DoJE=T BraDBF=F KetDBF=T FulRan=T
         Omega=  0.000000  0.000000  1.000000  0.000000  0.000000 ICntrl=     500 IOpCl=  0
         NMat0=    1 NMatS0=    1 NMatT0=    0 NMatD0=    1 NMtDS0=    0 NMtDT0=    0
         I1Cent=           4 NGrid=           0.
 Petite list used in FoFCou.
 Harris En= -150.511012947932    
 Initial guess orbital symmetries:
       Occupied  (B2) (A1) (A1) (A1) (B2) (A1) (A1) (B2) (B2) (A1)
                 (B1) (A2)
       Virtual   (B1) (A1) (B2) (A1) (B2) (A1) (B1) (A1) (B2) (A1)
                 (A1) (A2) (B2) (B1) (A1) (B2) (A1) (B2) (B1) (A1)
                 (A1) (A2) (B2) (B2) (B1) (A1) (A1) (A1) (B1) (A1)
                 (A2) (B2) (B2) (A1) (B1) (A2) (A1) (B2) (B2) (A1)
                 (A1) (B2) (B1) (B2) (A1) (A2) (B1) (B2) (A1) (B1)
                 (B2) (A2) (A1) (B2) (A1) (A1) (B2) (B1) (B2) (A1)
                 (A1) (A2) (A1) (B2) (A1) (B1) (A2) (A1) (B1) (B2)
                 (B1) (A2) (B2) (B1) (A1) (B2) (B2) (A1) (A1) (A1)
                 (A2) (B1) (A2) (B2) (B1) (A1) (B2) (A1) (A2) (A2)
                 (B2) (B1) (A1) (B2) (B2) (A1) (A2) (B2) (A1) (A1)
                 (B1) (B1) (A1) (B2) (B2) (A1) (A2) (A1) (B2) (B1)
                 (B2) (B1) (A1) (A2) (A1) (A1) (B1) (B2) (A2) (A1)
                 (B2) (A1) (B1) (B2) (A1) (B1) (B2) (A2) (A1) (B2)
                 (A2) (A1) (B2) (B1) (B1) (B2) (A1) (A2) (A1) (B2)
                 (B1) (A1) (A2) (B2) (B1) (B2) (A1) (B1) (B2) (A1)
                 (A2) (A2) (B2) (A1) (A1) (B1) (B2) (A1) (B2) (A2)
                 (A1) (A1) (B1) (B2) (A2) (B1) (A1) (A1) (B2) (B1)
                 (B1) (A1) (B2) (A2) (A2) (A2) (B1) (B2) (A1) (B2)
                 (A1) (B1) (B1) (B2) (A1) (A2) (A1) (A1) (B2) (B2)
                 (A1) (A2) (B2) (B1) (A2) (B2) (A1) (B2) (B1) (A2)
                 (A1) (B1) (B2) (A1) (A1) (B1) (A2) (B2) (B2) (A1)
                 (B1) (B2) (A2) (B1) (A1) (A1) (B2) (A1) (A2) (B2)
                 (B1) (B2) (A2) (B1) (B2) (A1) (A1) (A1) (A2) (B2)
                 (B1) (A1) (A2) (A1) (B2) (B1) (B2) (A1) (A2) (B2)
                 (A1) (A1) (B2) (B1) (B2) (A1) (A2) (B2) (B1) (B2)
                 (A1) (A1) (A2) (B1) (B2) (A2) (A1) (B1) (A1) (B2)
                 (A1) (B1) (A2) (A1) (B2) (A2) (A1) (B1) (B2) (A1)
                 (B2) (A2) (B1) (A1) (B2) (A1) (A2) (B2) (B1) (A1)
                 (B2) (A1) (B2) (A2) (B2) (B1) (A1) (B1) (A1) (B2)
                 (A2) (B2) (B1) (A2) (A1) (B2) (A1) (A1) (B2) (A1)
                 (B2) (A1) (B2) (B1) (A2) (B1) (A1) (B1) (B2) (B1)
                 (A1) (A2) (B2) (A1) (A2) (B1) (B1) (A1) (A2) (B2)
                 (A1) (B2) (B1) (A1) (B2) (A2) (B2) (A1) (A1) (B1)
                 (A2) (B1) (B2) (B1) (B2) (A1) (B2) (A2) (A1) (B1)
                 (A1) (A2) (B2) (A1) (A2) (B2) (A2) (A1) (B1) (B1)
                 (B2) (A1) (A2) (B1) (A1) (A2) (B2) (B1) (A1) (B1)
                 (A2) (B2) (A1) (B2) (A1) (A1) (B1) (B2) (A1) (B2)
                 (A2) (B2) (B1) (B2) (A2) (A1) (B1) (A2) (A1) (B2)
                 (B1) (B2) (A1) (A1) (A2) (B1) (B2) (A2) (B2) (A1)
                 (A1) (B2) (B2) (B1) (A1) (A2) (A1) (A1) (B2) (A2)
                 (B1) (B2) (A1) (B1) (B1) (A1) (B2) (A1) (A2) (A2)
                 (B1) (B2) (B1) (B2) (A2) (A2) (A1) (B1) (A1) (B1)
                 (B2) (A1) (A2) (A1) (B2) (B2) (A2) (A1) (B2) (B1)
                 (B2) (A1) (A1) (B2) (B2) (A1) (A1) (B1) (A2) (B1)
                 (A2) (B2) (A1) (B2) (A1) (B2) (A1) (A1) (B2) (A1)
                 (B2) (A1) (B2) (B2) (A1) (A1) (A1) (B2)
 The electronic state of the initial guess is 1-A1.
 Leave Link  401 at Thu Feb 26 00:06:23 2015, MaxMem= 1073741824 cpu:      10.1
 (Enter /apps/gaussian/g09_c01/g09/l502.exe)
 Closed shell SCF:
 Requested convergence on RMS density matrix=1.00D-08 within 128 cycles.
 Requested convergence on MAX density matrix=1.00D-06.
 Requested convergence on             energy=1.00D-06.
 No special actions if energy rises.
 Using DIIS extrapolation, IDIIS=  1040.
 Integral symmetry usage will be decided dynamically.
       190305 words used for storage of precomputed grid.
 IEnd=     1262487 IEndB=     1262487 NGot=  1073741824 MDV=  1072844668
 LenX=  1072844668 LenY=  1072495978
 Fock matrices will be formed incrementally for  20 cycles.

 Cycle   1  Pass 1  IDiag  1:
 FoFCou: FMM=F IPFlag=           0 FMFlag=      100000 FMFlg1=           0
         NFxFlg=           0 DoJE=F BraDBF=F KetDBF=F FulRan=T
         Omega=  0.000000  0.000000  1.000000  0.000000  0.000000 ICntrl=       0 IOpCl=  0
         NMat0=    1 NMatS0=    1 NMatT0=    0 NMatD0=    1 NMtDS0=    0 NMtDT0=    0
         I1Cent=           0 NGrid=           0.
 Petite list used in FoFCou.
 E= -150.404580144514    
 DIIS: error= 1.83D-02 at cycle   1 NSaved=   1.
 NSaved= 1 IEnMin= 1 EnMin= -150.404580144514     IErMin= 1 ErrMin= 1.83D-02
 ErrMax= 1.83D-02 EMaxC= 1.00D-01 BMatC= 9.54D-02 BMatP= 9.54D-02
 IDIUse=3 WtCom= 8.17D-01 WtEn= 1.83D-01
 Coeff-Com:  0.100D+01
 Coeff-En:   0.100D+01
 Coeff:      0.100D+01
 Gap=     0.230 Goal=   None    Shift=    0.000
 GapD=    0.230 DampG=1.000 DampE=0.500 DampFc=0.5000 IDamp=-1.
 Damping current iteration by 5.00D-01
 RMSDP=5.33D-04 MaxDP=3.15D-02              OVMax= 1.28D-01

 Cycle   2  Pass 1  IDiag  1:
 RMSU=  1.85D-04    CP:  9.85D-01
 E= -150.427131748203     Delta-E=       -0.022551603689 Rises=F Damp=T
 DIIS: error= 4.65D-03 at cycle   2 NSaved=   2.
 NSaved= 2 IEnMin= 2 EnMin= -150.427131748203     IErMin= 2 ErrMin= 4.65D-03
 ErrMax= 4.65D-03 EMaxC= 1.00D-01 BMatC= 6.19D-03 BMatP= 9.54D-02
 IDIUse=3 WtCom= 9.54D-01 WtEn= 4.65D-02
 Coeff-Com:  0.640D-01 0.936D+00
 Coeff-En:   0.211D+00 0.789D+00
 Coeff:      0.708D-01 0.929D+00
 Gap=     0.284 Goal=   None    Shift=    0.000
 RMSDP=1.79D-04 MaxDP=1.55D-02 DE=-2.26D-02 OVMax= 1.02D-01

 Cycle   3  Pass 1  IDiag  1:
 RMSU=  1.25D-04    CP:  9.91D-01  1.07D+00
 E= -150.459413758289     Delta-E=       -0.032282010087 Rises=F Damp=F
 DIIS: error= 3.95D-03 at cycle   3 NSaved=   3.
 NSaved= 3 IEnMin= 3 EnMin= -150.459413758289     IErMin= 3 ErrMin= 3.95D-03
 ErrMax= 3.95D-03 EMaxC= 1.00D-01 BMatC= 2.26D-03 BMatP= 6.19D-03
 IDIUse=3 WtCom= 9.61D-01 WtEn= 3.95D-02
 Coeff-Com: -0.640D-01 0.320D+00 0.744D+00
 Coeff-En:   0.000D+00 0.000D+00 0.100D+01
 Coeff:     -0.615D-01 0.308D+00 0.754D+00
 Gap=     0.273 Goal=   None    Shift=    0.000
 RMSDP=5.92D-05 MaxDP=4.60D-03 DE=-3.23D-02 OVMax= 2.57D-02

 Cycle   4  Pass 1  IDiag  1:
 RMSU=  3.59D-05    CP:  9.90D-01  1.14D+00  8.64D-01
 E= -150.460904412924     Delta-E=       -0.001490654635 Rises=F Damp=F
 DIIS: error= 2.47D-03 at cycle   4 NSaved=   4.
 NSaved= 4 IEnMin= 4 EnMin= -150.460904412924     IErMin= 4 ErrMin= 2.47D-03
 ErrMax= 2.47D-03 EMaxC= 1.00D-01 BMatC= 4.08D-04 BMatP= 2.26D-03
 IDIUse=3 WtCom= 9.75D-01 WtEn= 2.47D-02
 Coeff-Com: -0.352D-01 0.844D-01 0.393D+00 0.558D+00
 Coeff-En:   0.000D+00 0.000D+00 0.131D+00 0.869D+00
 Coeff:     -0.344D-01 0.823D-01 0.387D+00 0.566D+00
 Gap=     0.276 Goal=   None    Shift=    0.000
 RMSDP=2.30D-05 MaxDP=1.90D-03 DE=-1.49D-03 OVMax= 8.53D-03

 Cycle   5  Pass 1  IDiag  1:
 RMSU=  6.55D-06    CP:  9.90D-01  1.15D+00  8.94D-01  6.07D-01
 E= -150.461282204073     Delta-E=       -0.000377791149 Rises=F Damp=F
 DIIS: error= 2.27D-04 at cycle   5 NSaved=   5.
 NSaved= 5 IEnMin= 5 EnMin= -150.461282204073     IErMin= 5 ErrMin= 2.27D-04
 ErrMax= 2.27D-04 EMaxC= 1.00D-01 BMatC= 7.46D-06 BMatP= 4.08D-04
 IDIUse=3 WtCom= 9.98D-01 WtEn= 2.27D-03
 Coeff-Com: -0.892D-02 0.173D-01 0.113D+00 0.215D+00 0.664D+00
 Coeff-En:   0.000D+00 0.000D+00 0.000D+00 0.000D+00 0.100D+01
 Coeff:     -0.890D-02 0.172D-01 0.112D+00 0.214D+00 0.665D+00
 Gap=     0.276 Goal=   None    Shift=    0.000
 RMSDP=2.95D-06 MaxDP=2.48D-04 DE=-3.78D-04 OVMax= 6.31D-04

 Cycle   6  Pass 1  IDiag  1:
 RMSU=  1.23D-06    CP:  9.90D-01  1.15D+00  8.98D-01  6.38D-01  8.34D-01
 E= -150.461288599252     Delta-E=       -0.000006395179 Rises=F Damp=F
 DIIS: error= 2.47D-05 at cycle   6 NSaved=   6.
 NSaved= 6 IEnMin= 6 EnMin= -150.461288599252     IErMin= 6 ErrMin= 2.47D-05
 ErrMax= 2.47D-05 EMaxC= 1.00D-01 BMatC= 1.03D-07 BMatP= 7.46D-06
 IDIUse=1 WtCom= 1.00D+00 WtEn= 0.00D+00
 Coeff-Com: -0.414D-03 0.367D-03 0.114D-01 0.327D-01 0.144D+00 0.811D+00
 Coeff:     -0.414D-03 0.367D-03 0.114D-01 0.327D-01 0.144D+00 0.811D+00
 Gap=     0.276 Goal=   None    Shift=    0.000
 RMSDP=4.11D-07 MaxDP=4.55D-05 DE=-6.40D-06 OVMax= 7.62D-05

 Cycle   7  Pass 1  IDiag  1:
 RMSU=  2.21D-07    CP:  9.90D-01  1.15D+00  8.99D-01  6.41D-01  8.42D-01
                    CP:  9.65D-01
 E= -150.461288685264     Delta-E=       -0.000000086012 Rises=F Damp=F
 DIIS: error= 3.19D-06 at cycle   7 NSaved=   7.
 NSaved= 7 IEnMin= 7 EnMin= -150.461288685264     IErMin= 7 ErrMin= 3.19D-06
 ErrMax= 3.19D-06 EMaxC= 1.00D-01 BMatC= 1.87D-09 BMatP= 1.03D-07
 IDIUse=1 WtCom= 1.00D+00 WtEn= 0.00D+00
 Coeff-Com:  0.151D-03-0.352D-03-0.800D-03 0.110D-02 0.681D-02 0.139D+00
 Coeff-Com:  0.854D+00
 Coeff:      0.151D-03-0.352D-03-0.800D-03 0.110D-02 0.681D-02 0.139D+00
 Coeff:      0.854D+00
 Gap=     0.276 Goal=   None    Shift=    0.000
 RMSDP=6.93D-08 MaxDP=6.37D-06 DE=-8.60D-08 OVMax= 1.02D-05

 Cycle   8  Pass 1  IDiag  1:
 RMSU=  2.77D-08    CP:  9.90D-01  1.15D+00  8.99D-01  6.42D-01  8.40D-01
                    CP:  9.81D-01  9.91D-01
 E= -150.461288686769     Delta-E=       -0.000000001505 Rises=F Damp=F
 DIIS: error= 4.90D-07 at cycle   8 NSaved=   8.
 NSaved= 8 IEnMin= 8 EnMin= -150.461288686769     IErMin= 8 ErrMin= 4.90D-07
 ErrMax= 4.90D-07 EMaxC= 1.00D-01 BMatC= 4.47D-11 BMatP= 1.87D-09
 IDIUse=1 WtCom= 1.00D+00 WtEn= 0.00D+00
 Coeff-Com:  0.655D-05-0.167D-04-0.250D-03-0.299D-03-0.113D-02 0.947D-03
 Coeff-Com:  0.751D-01 0.926D+00
 Coeff:      0.655D-05-0.167D-04-0.250D-03-0.299D-03-0.113D-02 0.947D-03
 Coeff:      0.751D-01 0.926D+00
 Gap=     0.276 Goal=   None    Shift=    0.000
 RMSDP=7.44D-09 MaxDP=4.79D-07 DE=-1.51D-09 OVMax= 1.43D-06

 SCF Done:  E(RB3LYP) =  -150.461288687     A.U. after    8 cycles
             Convg  =    0.7442D-08             -V/T =  2.0055
 KE= 1.496373251135D+02 PE=-5.030008412963D+02 EE= 1.234781210277D+02
 Leave Link  502 at Thu Feb 26 00:10:29 2015, MaxMem= 1073741824 cpu:    1969.0
 (Enter /apps/gaussian/g09_c01/g09/l801.exe)
 Range of M.O.s used for correlation:     1   470
 NBasis=   470 NAE=    12 NBE=    12 NFC=     0 NFV=     0
 NROrb=    470 NOA=    12 NOB=    12 NVA=   458 NVB=   458

 **** Warning!!: The largest alpha MO coefficient is  0.99034663D+02

 Leave Link  801 at Thu Feb 26 00:10:29 2015, MaxMem= 1073741824 cpu:       0.1
 (Enter /apps/gaussian/g09_c01/g09/l1002.exe)
 Minotr:  Closed shell wavefunction.
          Direct CPHF calculation.
          Differentiating once with respect to electric field.
                with respect to dipole field.
          Electric field/nuclear overlap derivatives assumed to be zero.
          Using symmetry in CPHF.
          Requested convergence is 1.0D-08 RMS, and 1.0D-07 maximum.
          Secondary convergence is 1.0D-12 RMS, and 1.0D-12 maximum.
          NewPWx=F KeepS1=T KeepF1=T KeepIn=T MapXYZ=F SortEE=F KeepMc=T.
          MDV=    1073741756 using IRadAn=       1.
 Generate precomputed XC quadrature information.
          Solving linear equations simultaneously, MaxMat=       0.
          There are     3 degrees of freedom in the 1st order CPHF.  IDoFFX=0.
      3 vectors produced by pass  0 Test12= 1.83D-13 3.33D-08 XBig12= 3.50D+01 5.01D+00.
 AX will form     3 AO Fock derivatives at one time.
 Integrals replicated using symmetry in FoFDir.
 MinBra= 0 MaxBra= 4 Meth= 1.
 IRaf=       0 NMat=   3 IRICut=       1 DoRegI=T DoRafI=F ISym2E= 2 JSym2E=2.
      3 vectors produced by pass  1 Test12= 1.83D-13 3.33D-08 XBig12= 1.11D+01 1.04D+00.
      3 vectors produced by pass  2 Test12= 1.83D-13 3.33D-08 XBig12= 1.10D+00 3.26D-01.
      3 vectors produced by pass  3 Test12= 1.83D-13 3.33D-08 XBig12= 2.52D-02 3.68D-02.
      3 vectors produced by pass  4 Test12= 1.83D-13 3.33D-08 XBig12= 2.54D-03 1.18D-02.
      3 vectors produced by pass  5 Test12= 1.83D-13 3.33D-08 XBig12= 3.03D-04 3.92D-03.
      3 vectors produced by pass  6 Test12= 1.83D-13 3.33D-08 XBig12= 8.05D-06 7.42D-04.
      3 vectors produced by pass  7 Test12= 1.83D-13 3.33D-08 XBig12= 1.86D-07 1.23D-04.
      2 vectors produced by pass  8 Test12= 1.83D-13 3.33D-08 XBig12= 1.59D-09 9.48D-06.
      2 vectors produced by pass  9 Test12= 1.83D-13 3.33D-08 XBig12= 3.05D-11 1.38D-06.
      1 vectors produced by pass 10 Test12= 1.83D-13 3.33D-08 XBig12= 1.74D-13 9.03D-08.
 Inverted reduced A of dimension    29 with in-core refinement.
 End of Minotr Frequency-dependent properties file   721 does not exist.
 End of Minotr Frequency-dependent properties file   722 does not exist.
 Leave Link 1002 at Thu Feb 26 00:25:05 2015, MaxMem= 1073741824 cpu:    6983.6
 (Enter /apps/gaussian/g09_c01/g09/l1101.exe)
 Using compressed storage, NAtomX=     8.
 Will process   9 centers per pass.
 Leave Link 1101 at Thu Feb 26 00:25:05 2015, MaxMem= 1073741824 cpu:       4.6
 (Enter /apps/gaussian/g09_c01/g09/l1102.exe)
 Symmetrizing basis deriv contribution to polar:
 IMax=3 JMax=2 DiffMx= 0.00D+00
 Leave Link 1102 at Thu Feb 26 00:25:05 2015, MaxMem= 1073741824 cpu:       0.5
 (Enter /apps/gaussian/g09_c01/g09/l1110.exe)
 Forming Gx(P) for the SCF density, NAtomX=     8.
 Integral derivatives from FoFDir/FoFCou, PRISM(SPDF).
 Do as many integral derivatives as possible in FoFDir.
 G2DrvN: MDV=    1073741656.
 G2DrvN: will do     9 centers at a time, making    1 passes doing MaxLOS=4.
 Calling FoFCou, ICntrl=  3107 FMM=F I1Cent=   0 AccDes= 0.00D+00.
 FoFCou: FMM=F IPFlag=           0 FMFlag=      100000 FMFlg1=           0
         NFxFlg=           0 DoJE=F BraDBF=F KetDBF=F FulRan=T
         Omega=  0.000000  0.000000  1.000000  0.000000  0.000000 ICntrl=    3107 IOpCl=  0
         NMat0=    1 NMatS0=    1 NMatT0=    0 NMatD0=    4 NMtDS0=    3 NMtDT0=    0
         I1Cent=           0 NGrid=           0.
 Petite list used in FoFCou.
 FoFDir/FoFCou used for L=0 through L=4.
 End of G2Drv Frequency-dependent properties file   721 does not exist.
 End of G2Drv Frequency-dependent properties file   722 does not exist.
 Leave Link 1110 at Thu Feb 26 00:31:06 2015, MaxMem= 1073741824 cpu:    2877.4
 (Enter /apps/gaussian/g09_c01/g09/l1002.exe)
 Minotr:  Closed shell wavefunction.
          IDoAtm=11111111
          Direct CPHF calculation.
          Differentiating once with respect to electric field.
                with respect to dipole field.
          Differentiating once with respect to nuclear coordinates.
          Using symmetry in CPHF.
          Requested convergence is 1.0D-08 RMS, and 1.0D-07 maximum.
          Secondary convergence is 1.0D-12 RMS, and 1.0D-12 maximum.
          NewPWx=T KeepS1=F KeepF1=F KeepIn=T MapXYZ=F SortEE=F KeepMc=T.
          MDV=    1073741740 using IRadAn=       1.
 Generate precomputed XC quadrature information.
          Solving linear equations simultaneously, MaxMat=       0.
 Integrals replicated using symmetry in FoFDir.
 MinBra= 0 MaxBra= 4 Meth= 1.
 IRaf=       0 NMat=  18 IRICut=       1 DoRegI=T DoRafI=F ISym2E= 2 JSym2E=2.
          There are    18 degrees of freedom in the 1st order CPHF.  IDoFFX=4.
 Will reuse    3 saved solutions.
     15 vectors produced by pass  0 Test12= 3.05D-14 5.56D-09 XBig12= 1.34D-01 1.21D-01.
 AX will form    15 AO Fock derivatives at one time.
     15 vectors produced by pass  1 Test12= 3.05D-14 5.56D-09 XBig12= 4.08D-02 1.16D-01.
     15 vectors produced by pass  2 Test12= 3.05D-14 5.56D-09 XBig12= 9.79D-04 5.32D-03.
     15 vectors produced by pass  3 Test12= 3.05D-14 5.56D-09 XBig12= 5.36D-06 3.28D-04.
     15 vectors produced by pass  4 Test12= 3.05D-14 5.56D-09 XBig12= 2.25D-08 3.73D-05.
     14 vectors produced by pass  5 Test12= 3.05D-14 5.56D-09 XBig12= 6.40D-11 1.78D-06.
      4 vectors produced by pass  6 Test12= 3.05D-14 5.56D-09 XBig12= 6.64D-14 3.79D-08.
 Inverted reduced A of dimension    93 with in-core refinement.
 FullF1:  Do perturbations    1 to    18.
 Isotropic polarizability for W=    0.000000       27.11 Bohr**3.
 FullF1:  Do perturbations    1 to     6.
 End of Minotr Frequency-dependent properties file   721 does not exist.
 End of Minotr Frequency-dependent properties file   722 does not exist.
 Leave Link 1002 at Thu Feb 26 01:00:16 2015, MaxMem= 1073741824 cpu:   13957.3
 (Enter /apps/gaussian/g09_c01/g09/l601.exe)
 Copying SCF densities to generalized density rwf, IOpCl= 0 IROHF=0.

 **********************************************************************

            Population analysis using the SCF density.

 **********************************************************************

 Orbital symmetries:
       Occupied  (B2) (A1) (A1) (A1) (B2) (A1) (A1) (B2) (B2) (A1)
                 (B1) (A2)
       Virtual   (B1) (A1) (A1) (B2) (B1) (A1) (B2) (A1) (B2) (A1)
                 (A2) (B1) (A1) (B2) (A1) (B2) (A1) (B2) (B1) (A1)
                 (A2) (A1) (B2) (B1) (B2) (A1) (B1) (A1) (A1) (A2)
                 (A1) (B2) (A1) (B2) (B1) (A2) (B2) (A1) (B2) (A1)
                 (A1) (B2) (B1) (B2) (A1) (B1) (A2) (B1) (B2) (A1)
                 (B2) (A2) (A1) (B2) (A1) (A1) (B2) (B1) (A1) (B2)
                 (A1) (A2) (A1) (B1) (A2) (B2) (A1) (B1) (A1) (B2)
                 (B1) (A2) (B1) (B2) (A1) (B2) (A1) (B2) (A1) (A2)
                 (A1) (B1) (A2) (B1) (A1) (B2) (B2) (A2) (A1) (A2)
                 (B1) (B2) (B2) (A1) (B2) (A1) (A2) (B2) (A1) (A1)
                 (B1) (B1) (A1) (B2) (B2) (A1) (A2) (A1) (B1) (B2)
                 (B2) (B1) (A1) (A2) (A1) (A1) (B1) (B2) (A2) (B1)
                 (A1) (B2) (A1) (B2) (A1) (B1) (B2) (A2) (A1) (B2)
                 (A2) (A1) (B2) (B1) (B1) (B2) (A1) (A2) (B2) (A1)
                 (B1) (A2) (A1) (B1) (B2) (B2) (A1) (A2) (B1) (B2)
                 (A1) (A2) (B2) (A1) (B1) (A1) (B2) (A1) (A2) (B2)
                 (A1) (A1) (B1) (A2) (B2) (B1) (A1) (A1) (B1) (B2)
                 (B1) (A1) (B2) (A2) (A2) (B1) (B2) (A2) (A1) (B2)
                 (A1) (B1) (B1) (A1) (B2) (A2) (A1) (B2) (A1) (B2)
                 (A1) (A2) (B2) (B1) (B2) (A2) (B2) (A1) (B1) (A2)
                 (A1) (B1) (B2) (A1) (A1) (A2) (B1) (B2) (B2) (A1)
                 (B1) (B2) (A2) (B1) (A1) (A1) (B2) (A1) (A2) (B2)
                 (B1) (B2) (A2) (B1) (B2) (A1) (A1) (A1) (B2) (A2)
                 (B1) (A1) (A2) (A1) (B2) (B1) (B2) (A1) (A2) (B2)
                 (A1) (A1) (B2) (B1) (B2) (A1) (A2) (B2) (B1) (B2)
                 (A1) (A1) (A2) (B1) (B2) (A2) (A1) (B1) (A1) (B2)
                 (A1) (B1) (A2) (A1) (B2) (A2) (A1) (B2) (B1) (A1)
                 (B2) (A2) (B1) (A1) (B2) (A1) (A2) (B2) (B1) (A1)
                 (B2) (A1) (B2) (A2) (B2) (B1) (A1) (B1) (A1) (A2)
                 (B2) (B2) (B1) (A2) (A1) (B2) (A1) (A1) (B2) (A1)
                 (B2) (A1) (B2) (A2) (B1) (B1) (A1) (B1) (B2) (B1)
                 (A1) (A2) (B2) (A1) (B1) (A2) (B1) (A1) (A2) (B2)
                 (A1) (B2) (B1) (A1) (B2) (A2) (B2) (A1) (A1) (B1)
                 (A2) (B1) (B2) (B1) (B2) (A1) (B2) (A2) (B1) (A1)
                 (A1) (A2) (B2) (A2) (A1) (B2) (A2) (A1) (B1) (B1)
                 (B2) (A1) (A2) (B1) (A1) (A2) (B2) (A1) (B1) (B1)
                 (A2) (B2) (A1) (B2) (A1) (A1) (B2) (A1) (B1) (B2)
                 (A2) (B2) (B1) (B2) (A2) (A1) (B1) (A2) (A1) (B2)
                 (B1) (B2) (A1) (A1) (B1) (A2) (B2) (A2) (B2) (A1)
                 (A1) (B2) (B2) (A1) (B1) (A2) (A1) (A1) (B2) (A2)
                 (B1) (B2) (A1) (B1) (B1) (A1) (B2) (A1) (A2) (A2)
                 (B1) (B2) (B2) (B1) (A2) (A2) (A1) (B1) (A1) (B2)
                 (B1) (A1) (A2) (A1) (B2) (B2) (A2) (A1) (B2) (B1)
                 (B2) (A1) (A1) (B2) (B2) (A1) (A1) (B1) (A2) (B1)
                 (A2) (B2) (A1) (B2) (A1) (B2) (A1) (A1) (B2) (A1)
                 (B2) (A1) (B2) (B2) (A1) (A1) (A1) (B2)
 The electronic state is 1-A1.
 Alpha  occ. eigenvalues --  -14.58893 -14.58892 -10.51849  -1.22137  -1.13656
 Alpha  occ. eigenvalues --   -0.89920  -0.82031  -0.79621  -0.72957  -0.67007
 Alpha  occ. eigenvalues --   -0.64479  -0.51960
 Alpha virt. eigenvalues --   -0.24338  -0.18518  -0.15934  -0.15628  -0.10917
 Alpha virt. eigenvalues --   -0.10583  -0.10446  -0.09144  -0.06951  -0.06744
 Alpha virt. eigenvalues --   -0.06251  -0.05896  -0.05013  -0.03552  -0.03475
 Alpha virt. eigenvalues --   -0.01956  -0.01949  -0.00478  -0.00140   0.00859
 Alpha virt. eigenvalues --    0.01929   0.02825   0.03851   0.04167   0.04900
 Alpha virt. eigenvalues --    0.05495   0.07824   0.07978   0.08554   0.09460
 Alpha virt. eigenvalues --    0.09827   0.10352   0.10589   0.10684   0.11003
 Alpha virt. eigenvalues --    0.12814   0.14028   0.14222   0.15462   0.16324
 Alpha virt. eigenvalues --    0.16817   0.17888   0.18099   0.19143   0.20557
 Alpha virt. eigenvalues --    0.22053   0.22306   0.24324   0.24360   0.25448
 Alpha virt. eigenvalues --    0.26845   0.27317   0.29372   0.30180   0.30845
 Alpha virt. eigenvalues --    0.32207   0.34154   0.35508   0.38030   0.38700
 Alpha virt. eigenvalues --    0.40196   0.40425   0.42035   0.42207   0.42793
 Alpha virt. eigenvalues --    0.42997   0.43451   0.45815   0.46158   0.47202
 Alpha virt. eigenvalues --    0.48175   0.48883   0.49194   0.50293   0.51196
 Alpha virt. eigenvalues --    0.51397   0.52150   0.52553   0.54094   0.54155
 Alpha virt. eigenvalues --    0.54913   0.55852   0.60628   0.61663   0.61896
 Alpha virt. eigenvalues --    0.62238   0.63919   0.64503   0.64981   0.65895
 Alpha virt. eigenvalues --    0.68583   0.68987   0.69984   0.70180   0.71708
 Alpha virt. eigenvalues --    0.72570   0.73185   0.74582   0.75197   0.75616
 Alpha virt. eigenvalues --    0.80806   0.81625   0.82144   0.83171   0.84292
 Alpha virt. eigenvalues --    0.85442   0.88561   0.92435   0.93418   0.93570
 Alpha virt. eigenvalues --    0.95088   0.98118   0.99949   1.02398   1.03840
 Alpha virt. eigenvalues --    1.06954   1.07051   1.08435   1.12617   1.14568
 Alpha virt. eigenvalues --    1.14673   1.14766   1.16424   1.17352   1.18271
 Alpha virt. eigenvalues --    1.18981   1.21126   1.22427   1.23611   1.26685
 Alpha virt. eigenvalues --    1.27616   1.29607   1.31061   1.32014   1.32892
 Alpha virt. eigenvalues --    1.34197   1.35346   1.39682   1.41122   1.41693
 Alpha virt. eigenvalues --    1.43772   1.44515   1.45414   1.46541   1.47183
 Alpha virt. eigenvalues --    1.49291   1.49915   1.51903   1.52142   1.52413
 Alpha virt. eigenvalues --    1.52866   1.58135   1.59857   1.60962   1.62302
 Alpha virt. eigenvalues --    1.62544   1.65247   1.65612   1.67291   1.68552
 Alpha virt. eigenvalues --    1.70022   1.72511   1.72911   1.74471   1.75421
 Alpha virt. eigenvalues --    1.76911   1.79087   1.80049   1.81434   1.82142
 Alpha virt. eigenvalues --    1.83414   1.83674   1.85222   1.86187   1.87472
 Alpha virt. eigenvalues --    1.89251   1.89698   1.90063   1.90668   1.94487
 Alpha virt. eigenvalues --    1.95023   1.96667   2.02983   2.03377   2.04583
 Alpha virt. eigenvalues --    2.06825   2.13825   2.14768   2.15234   2.18154
 Alpha virt. eigenvalues --    2.20377   2.21736   2.23052   2.23859   2.27584
 Alpha virt. eigenvalues --    2.27800   2.31838   2.32176   2.33850   2.35104
 Alpha virt. eigenvalues --    2.36130   2.40665   2.41663   2.42284   2.46027
 Alpha virt. eigenvalues --    2.48624   2.48670   2.49326   2.49884   2.52217
 Alpha virt. eigenvalues --    2.53197   2.58325   2.58600   2.59351   2.59935
 Alpha virt. eigenvalues --    2.64867   2.67067   2.70881   2.71981   2.74696
 Alpha virt. eigenvalues --    2.76459   2.77288   2.78848   2.79890   2.81086
 Alpha virt. eigenvalues --    2.81900   2.84815   2.89006   2.89340   2.89374
 Alpha virt. eigenvalues --    2.94740   2.94766   2.96059   3.00756   3.01497
 Alpha virt. eigenvalues --    3.02945   3.06257   3.07951   3.08788   3.11062
 Alpha virt. eigenvalues --    3.14330   3.20094   3.24312   3.24648   3.30641
 Alpha virt. eigenvalues --    3.32196   3.35875   3.39146   3.46263   3.49549
 Alpha virt. eigenvalues --    3.52774   3.54378   3.54494   3.57280   3.59508
 Alpha virt. eigenvalues --    3.59524   3.61005   3.65729   3.73962   3.76348
 Alpha virt. eigenvalues --    3.78158   3.79271   3.83314   3.83799   3.86492
 Alpha virt. eigenvalues --    3.90588   3.96064   3.96320   3.97313   3.99921
 Alpha virt. eigenvalues --    4.05460   4.08738   4.10334   4.10863   4.18583
 Alpha virt. eigenvalues --    4.24349   4.25584   4.28187   4.28474   4.30565
 Alpha virt. eigenvalues --    4.32902   4.36385   4.39804   4.46529   4.47571
 Alpha virt. eigenvalues --    4.51500   4.54985   4.68633   4.71288   4.79179
 Alpha virt. eigenvalues --    4.79239   4.84655   4.86329   4.92955   4.95877
 Alpha virt. eigenvalues --    5.04591   5.08292   5.09951   5.13281   5.29196
 Alpha virt. eigenvalues --    5.39685   5.52014   5.59606   5.61892   5.63233
 Alpha virt. eigenvalues --    5.72595   5.78919   5.80724   6.07910   6.08406
 Alpha virt. eigenvalues --    6.09115   6.10066   6.15912   6.16846   6.21947
 Alpha virt. eigenvalues --    6.23998   6.41321   6.45054   6.45909   6.47566
 Alpha virt. eigenvalues --    6.49425   6.53280   6.61951   6.64426   6.66951
 Alpha virt. eigenvalues --    6.68145   6.69407   6.70857   6.77410   6.77631
 Alpha virt. eigenvalues --    6.90620   6.94109   6.97722   7.03291   7.04981
 Alpha virt. eigenvalues --    7.08860   7.10690   7.11254   7.13074   7.14153
 Alpha virt. eigenvalues --    7.22736   7.31306   7.32944   7.34127   7.34932
 Alpha virt. eigenvalues --    7.40424   7.41749   7.44633   7.47815   7.53056
 Alpha virt. eigenvalues --    7.58360   7.64121   7.64460   7.79154   7.81283
 Alpha virt. eigenvalues --    7.87564   7.89683   7.90818   7.90849   7.94387
 Alpha virt. eigenvalues --    7.94562   7.97926   8.00276   8.03281   8.05872
 Alpha virt. eigenvalues --    8.09446   8.11016   8.12585   8.16700   8.16755
 Alpha virt. eigenvalues --    8.21152   8.24120   8.25170   8.31761   8.33833
 Alpha virt. eigenvalues --    8.35613   8.36009   8.37878   8.40373   8.50750
 Alpha virt. eigenvalues --    8.55719   8.57253   8.58886   8.62186   8.66380
 Alpha virt. eigenvalues --    8.66463   8.67381   8.69143   8.73128   8.74019
 Alpha virt. eigenvalues --    8.79930   8.85546   8.94683   8.94891   8.95308
 Alpha virt. eigenvalues --    8.98265   9.03109   9.05538   9.06619   9.08463
 Alpha virt. eigenvalues --    9.21559   9.23304   9.24347   9.27066   9.29602
 Alpha virt. eigenvalues --    9.30765   9.34448   9.35672   9.38538   9.44785
 Alpha virt. eigenvalues --    9.46403   9.52122   9.63198   9.64026   9.68859
 Alpha virt. eigenvalues --    9.70385   9.71130   9.73733   9.80355   9.82346
 Alpha virt. eigenvalues --    9.86462   9.87081   9.98853  10.00082  10.01075
 Alpha virt. eigenvalues --   10.22808  10.28076  10.32378  10.38397  10.44971
 Alpha virt. eigenvalues --   10.48123  10.81866  10.95951  11.13741  11.26341
 Alpha virt. eigenvalues --   11.27229  11.33896  11.39615  11.40942  11.52038
 Alpha virt. eigenvalues --   11.52688  11.64866  11.83501  11.89467  12.06947
 Alpha virt. eigenvalues --   12.40330  12.43496  12.52268  12.55812  12.86349
 Alpha virt. eigenvalues --   12.99413  14.09836  14.18482  14.42051  14.42964
 Alpha virt. eigenvalues --   25.61143  34.08451  34.19607
          Condensed to atoms (all electrons):
              1          2          3          4          5          6
     1  C    4.829419   0.296408   0.414228  -0.031766  -0.000198   0.414228
     2  H    0.296408   0.218734  -0.044503  -0.001737  -0.000557  -0.044503
     3  N    0.414228  -0.044503   6.435692   0.396830   0.352131  -0.065793
     4  H   -0.031766  -0.001737   0.396830   0.381102  -0.042705   0.010324
     5  H   -0.000198  -0.000557   0.352131  -0.042705   0.345540  -0.012580
     6  N    0.414228  -0.044503  -0.065793   0.010324  -0.012580   6.435692
     7  H   -0.000198  -0.000557  -0.012580  -0.000058   0.004910   0.352131
     8  H   -0.031766  -0.001737   0.010324  -0.000754  -0.000058   0.396830
              7          8
     1  C   -0.000198  -0.031766
     2  H   -0.000557  -0.001737
     3  N   -0.012580   0.010324
     4  H   -0.000058  -0.000754
     5  H    0.004910  -0.000058
     6  N    0.352131   0.396830
     7  H    0.345540  -0.042705
     8  H   -0.042705   0.381102
 Mulliken atomic charges:
              1
     1  C    0.109645
     2  H    0.578451
     3  N   -0.486329
     4  H    0.288765
     5  H    0.353516
     6  N   -0.486329
     7  H    0.353516
     8  H    0.288765
 Sum of Mulliken atomic charges =   1.00000
 Mulliken charges with hydrogens summed into heavy atoms:
              1
     1  C    0.688096
     3  N    0.155952
     6  N    0.155952
 Sum of Mulliken charges with hydrogens summed into heavy atoms =   1.00000
 APT atomic charges:
              1
     1  C    0.872083
     2  H    0.127002
     3  N   -0.580684
     4  H    0.308684
     5  H    0.272457
     6  N   -0.580684
     7  H    0.272457
     8  H    0.308684
 Sum of APT charges=   1.00000
 APT Atomic charges with hydrogens summed into heavy atoms:
              1
     1  C    0.999084
     2  H    0.000000
     3  N    0.000458
     4  H    0.000000
     5  H    0.000000
     6  N    0.000458
     7  H    0.000000
     8  H    0.000000
 Sum of APT charges=   1.00000
 Electronic spatial extent (au):  <R**2>=            159.0056
 Charge=              1.0000 electrons
 Dipole moment (field-independent basis, Debye):
    X=              0.0000    Y=              0.0000    Z=             -0.2104  Tot=              0.2104
 Quadrupole moment (field-independent basis, Debye-Ang):
   XX=            -19.1818   YY=             -4.5145   ZZ=            -10.3980
   XY=              0.0000   XZ=              0.0000   YZ=              0.0000
 Traceless Quadrupole moment (field-independent basis, Debye-Ang):
   XX=             -7.8170   YY=              6.8502   ZZ=              0.9668
   XY=              0.0000   XZ=              0.0000   YZ=              0.0000
 Octapole moment (field-independent basis, Debye-Ang**2):
  XXX=              0.0000  YYY=              0.0000  ZZZ=             -3.2272  XYY=              0.0000
  XXY=              0.0000  XXZ=             -0.0571  XZZ=              0.0000  YZZ=              0.0000
  YYZ=             -0.0510  XYZ=              0.0000
 Hexadecapole moment (field-independent basis, Debye-Ang**3):
 XXXX=            -17.8537 YYYY=            -72.3341 ZZZZ=            -24.0177 XXXY=              0.0000
 XXXZ=              0.0000 YYYX=              0.0000 YYYZ=              0.0000 ZZZX=              0.0000
 ZZZY=              0.0000 XXYY=            -27.7315 XXZZ=             -9.6840 YYZZ=            -18.2686
 XXYZ=              0.0000 YYXZ=              0.0000 ZZXY=              0.0000
 N-N= 7.942410646830D+01 E-N=-5.030008015207D+02  KE= 1.496373251135D+02
 Symmetry A1   KE= 8.863995130559D+01
 Symmetry A2   KE= 3.557671823678D+00
 Symmetry B1   KE= 2.775152194677D+00
 Symmetry B2   KE= 5.466454978951D+01
  Exact polarizability:  18.387   0.000  37.716   0.000   0.000  25.235
 Approx polarizability:  24.519   0.000  54.759   0.000   0.000  34.864
 No NMR shielding tensors so no spin-rotation constants.
 Leave Link  601 at Thu Feb 26 01:00:17 2015, MaxMem= 1073741824 cpu:       8.2
 (Enter /apps/gaussian/g09_c01/g09/l701.exe)
 Compute integral second derivatives.
 ... and contract with generalized density number  0.
 Leave Link  701 at Thu Feb 26 01:00:17 2015, MaxMem= 1073741824 cpu:       4.7
 (Enter /apps/gaussian/g09_c01/g09/l702.exe)
 L702 exits ... SP integral derivatives will be done elsewhere.
 Leave Link  702 at Thu Feb 26 01:00:17 2015, MaxMem= 1073741824 cpu:       0.1
 (Enter /apps/gaussian/g09_c01/g09/l703.exe)
 Compute integral second derivatives, UseDBF=F ICtDFT=           0.
 Integral derivatives from FoFDir, PRISM(SPDF).
 Calling FoFJK, ICntrl=    100127 FMM=F ISym2X=1 I1Cent= 0 IOpClX= 0 NMat=1 NMatS=1 NMatT=0.
 FoFCou: FMM=F IPFlag=           0 FMFlag=      100000 FMFlg1=         800
         NFxFlg=           0 DoJE=F BraDBF=F KetDBF=F FulRan=T
         Omega=  0.000000  0.000000  1.000000  0.000000  0.000000 ICntrl=  100127 IOpCl=  0
         NMat0=    1 NMatS0=    1 NMatT0=    0 NMatD0=    1 NMtDS0=    0 NMtDT0=    0
         I1Cent=           0 NGrid=           0.
 Petite list used in FoFCou.
 Leave Link  703 at Thu Feb 26 01:13:59 2015, MaxMem= 1073741824 cpu:    6555.4
 (Enter /apps/gaussian/g09_c01/g09/l716.exe)
 Dipole        =-1.17455617D-16 1.23418169D-13-8.27702055D-02
 Polarizability= 1.83865076D+01-1.64631810D-12 3.77164893D+01
                -1.29148318D-12 4.69275853D-14 2.52351802D+01
 HyperPolar    =-2.80832121D-10-1.84125881D-10-2.04228941D-10
                 4.41853482D-10 2.23530829D-02-1.44667188D-11
                 2.85993051D+01-7.73399282D-11-9.06847069D-09
                -6.36925675D+00
 ***** Axes restored to original set *****
 -------------------------------------------------------------------
 Center     Atomic                   Forces (Hartrees/Bohr)
 Number     Number              X              Y              Z
 -------------------------------------------------------------------
      1        6           0.000000000   -0.003638413    0.000000000
      2        1           0.000000000   -0.002801295    0.000000000
      3        7          -0.002418388    0.000587697    0.000000000
      4        1          -0.004298857   -0.002021074    0.000000000
      5        1          -0.001047613    0.004653232    0.000000000
      6        7           0.002418388    0.000587697    0.000000000
      7        1           0.001047613    0.004653232    0.000000000
      8        1           0.004298857   -0.002021074    0.000000000
 -------------------------------------------------------------------
 Cartesian Forces:  Max     0.004653232 RMS     0.002273976
 Force constants in Cartesian coordinates: 
                1             2             3             4             5 
      1  0.890871D+00
      2  0.000000D+00  0.812528D+00
      3  0.000000D+00  0.000000D+00  0.172079D+00
      4 -0.648850D-01  0.000000D+00  0.000000D+00  0.712605D-01
      5  0.000000D+00 -0.335282D+00  0.000000D+00  0.000000D+00  0.351428D+00
      6  0.000000D+00  0.000000D+00 -0.551888D-01  0.000000D+00  0.000000D+00
      7 -0.388466D+00  0.144336D+00  0.000000D+00 -0.368952D-03  0.232986D-02
      8  0.129762D+00 -0.245306D+00  0.000000D+00  0.355043D-01 -0.104438D-01
      9  0.000000D+00  0.000000D+00 -0.534762D-01  0.000000D+00  0.000000D+00
     10 -0.271691D-01 -0.169442D-01  0.000000D+00  0.117452D-02  0.159421D-03
     11  0.165308D-01  0.160031D-01  0.000000D+00  0.945268D-03  0.782271D-03
     12  0.000000D+00  0.000000D+00 -0.595913D-02  0.000000D+00  0.000000D+00
     13  0.264231D-02  0.364708D-01  0.000000D+00 -0.399331D-02  0.934005D-03
     14  0.783884D-02 -0.932062D-02  0.000000D+00  0.929475D-03  0.158833D-02
     15  0.000000D+00  0.000000D+00  0.990051D-03  0.000000D+00  0.000000D+00
     16 -0.388466D+00 -0.144336D+00  0.000000D+00 -0.368951D-03 -0.232987D-02
     17 -0.129762D+00 -0.245306D+00  0.000000D+00 -0.355043D-01 -0.104438D-01
     18  0.000000D+00  0.000000D+00 -0.534762D-01  0.000000D+00  0.000000D+00
     19  0.264231D-02 -0.364708D-01  0.000000D+00 -0.399331D-02 -0.934005D-03
     20 -0.783884D-02 -0.932062D-02  0.000000D+00 -0.929475D-03  0.158833D-02
     21  0.000000D+00  0.000000D+00  0.990051D-03  0.000000D+00  0.000000D+00
     22 -0.271691D-01  0.169442D-01  0.000000D+00  0.117452D-02 -0.159422D-03
     23 -0.165308D-01  0.160031D-01  0.000000D+00 -0.945268D-03  0.782271D-03
     24  0.000000D+00  0.000000D+00 -0.595913D-02  0.000000D+00  0.000000D+00
                6             7             8             9            10 
      6  0.324602D-01
      7  0.000000D+00  0.870306D+00
      8  0.000000D+00 -0.128629D-01  0.832065D+00
      9  0.765705D-02  0.000000D+00  0.000000D+00  0.612180D-01
     10  0.000000D+00 -0.322312D+00 -0.165819D+00  0.000000D+00  0.336714D+00
     11  0.000000D+00 -0.170084D+00 -0.187837D+00  0.000000D+00  0.173215D+00
     12 -0.405015D-02  0.000000D+00  0.000000D+00 -0.120961D-01  0.000000D+00
     13  0.000000D+00 -0.804424D-01  0.283421D-01  0.000000D+00  0.103575D-01
     14  0.000000D+00  0.271441D-01 -0.422216D+00  0.000000D+00  0.485089D-02
     15  0.775738D-02  0.000000D+00  0.000000D+00 -0.184803D-01  0.000000D+00
     16  0.000000D+00 -0.827159D-01 -0.105412D-01  0.000000D+00  0.199330D-02
     17  0.000000D+00  0.105412D-01  0.348058D-01  0.000000D+00  0.522649D-02
     18  0.765704D-02  0.000000D+00  0.000000D+00  0.131719D-01  0.000000D+00
     19  0.000000D+00  0.200659D-02  0.841672D-03  0.000000D+00 -0.108677D-03
     20  0.000000D+00  0.507461D-02  0.545426D-03  0.000000D+00 -0.217340D-03
     21  0.775738D-02  0.000000D+00  0.000000D+00 -0.372740D-02  0.000000D+00
     22  0.000000D+00  0.199330D-02 -0.522649D-02  0.000000D+00 -0.648872D-03
     23  0.000000D+00 -0.647801D-02 -0.161374D-02  0.000000D+00 -0.471223D-03
     24 -0.405015D-02  0.000000D+00  0.000000D+00  0.573304D-02  0.000000D+00
               11            12            13            14            15 
     11  0.181454D+00
     12  0.000000D+00  0.148793D-01
     13 -0.277903D-01  0.000000D+00  0.711053D-01
     14 -0.915925D-02  0.000000D+00 -0.363933D-01  0.438338D+00
     15  0.000000D+00 -0.107607D-02  0.000000D+00  0.000000D+00  0.149370D-01
     16  0.647801D-02  0.000000D+00  0.200659D-02 -0.507461D-02  0.000000D+00
     17 -0.161374D-02  0.000000D+00 -0.841672D-03  0.545426D-03  0.000000D+00
     18  0.000000D+00  0.573304D-02  0.000000D+00  0.000000D+00 -0.372740D-02
     19  0.234435D-03  0.000000D+00 -0.156731D-02  0.487205D-03  0.000000D+00
     20 -0.505617D-03  0.000000D+00 -0.487205D-03  0.730318D-03  0.000000D+00
     21  0.000000D+00 -0.561981D-03  0.000000D+00  0.000000D+00  0.161326D-03
     22  0.471223D-03  0.000000D+00 -0.108677D-03  0.217340D-03  0.000000D+00
     23  0.875902D-03  0.000000D+00 -0.234435D-03 -0.505617D-03  0.000000D+00
     24  0.000000D+00  0.313105D-02  0.000000D+00  0.000000D+00 -0.561981D-03
               16            17            18            19            20 
     16  0.870306D+00
     17  0.128629D-01  0.832065D+00
     18  0.000000D+00  0.000000D+00  0.612180D-01
     19 -0.804424D-01 -0.283421D-01  0.000000D+00  0.711053D-01
     20 -0.271441D-01 -0.422216D+00  0.000000D+00  0.363933D-01  0.438338D+00
     21  0.000000D+00  0.000000D+00 -0.184803D-01  0.000000D+00  0.000000D+00
     22 -0.322312D+00  0.165819D+00  0.000000D+00  0.103575D-01 -0.485089D-02
     23  0.170084D+00 -0.187837D+00  0.000000D+00  0.277903D-01 -0.915925D-02
     24  0.000000D+00  0.000000D+00 -0.120961D-01  0.000000D+00  0.000000D+00
               21            22            23            24 
     21  0.149370D-01
     22  0.000000D+00  0.336714D+00
     23  0.000000D+00 -0.173215D+00  0.181454D+00
     24 -0.107607D-02  0.000000D+00  0.000000D+00  0.148793D-01
 Force constants in internal coordinates: 
                1             2             3             4             5 
      1  0.351428D+00
      2  0.674218D-02  0.580693D+00
      3  0.674219D-02  0.580674D-01  0.580693D+00
      4  0.555957D-03  0.583241D-02 -0.581102D-02  0.448888D+00
      5 -0.148303D-02  0.885677D-02 -0.346848D-02  0.198707D-03  0.441896D+00
      6 -0.148303D-02 -0.346848D-02  0.885677D-02  0.449591D-03  0.840127D-03
      7  0.555957D-03 -0.581102D-02  0.583241D-02  0.286698D-03  0.449591D-03
      8  0.357635D-02  0.824187D-02 -0.327469D-01 -0.239333D-02  0.363866D-02
      9  0.357635D-02 -0.327469D-01  0.824188D-02  0.683840D-03  0.890252D-03
     10 -0.715270D-02  0.245050D-01  0.245050D-01  0.170949D-02 -0.452891D-02
     11 -0.143150D-02  0.166466D-01  0.356452D-02  0.181596D-02 -0.804811D-02
     12  0.176531D-02  0.751489D-02 -0.102731D-02 -0.696478D-02  0.216609D-02
     13 -0.333807D-03 -0.241615D-01 -0.253721D-02  0.514882D-02  0.588201D-02
     14  0.176531D-02 -0.102731D-02  0.751489D-02 -0.165698D-03  0.899494D-03
     15 -0.143150D-02  0.356452D-02  0.166466D-01  0.173455D-03 -0.718111D-03
     16 -0.333808D-03 -0.253721D-02 -0.241615D-01 -0.775786D-05 -0.181382D-03
     17  0.000000D+00  0.000000D+00  0.000000D+00  0.000000D+00  0.000000D+00
     18  0.000000D+00  0.000000D+00  0.000000D+00  0.000000D+00  0.000000D+00
     19  0.000000D+00  0.000000D+00  0.000000D+00  0.000000D+00  0.000000D+00
     20  0.000000D+00  0.000000D+00  0.000000D+00  0.000000D+00  0.000000D+00
     21  0.000000D+00  0.000000D+00  0.000000D+00  0.000000D+00  0.000000D+00
     22  0.000000D+00  0.000000D+00  0.000000D+00  0.000000D+00  0.000000D+00
     23  0.000000D+00  0.000000D+00  0.000000D+00  0.000000D+00  0.000000D+00
     24  0.000000D+00  0.000000D+00  0.000000D+00  0.000000D+00  0.000000D+00
                6             7             8             9            10 
      6  0.441896D+00
      7  0.198707D-03  0.448888D+00
      8  0.890253D-03  0.683840D-03  0.111385D+00
      9  0.363866D-02 -0.239333D-02 -0.359664D-01  0.111385D+00
     10 -0.452891D-02  0.170949D-02 -0.754189D-01 -0.754189D-01  0.150838D+00
     11 -0.718111D-03  0.173455D-03 -0.841241D-02 -0.374785D-02  0.121603D-01
     12  0.899493D-03 -0.165698D-03  0.957731D-02 -0.393652D-03 -0.918366D-02
     13 -0.181382D-03 -0.775757D-05 -0.116490D-02  0.414150D-02 -0.297659D-02
     14  0.216609D-02 -0.696478D-02 -0.393652D-03  0.957731D-02 -0.918366D-02
     15 -0.804811D-02  0.181596D-02 -0.374785D-02 -0.841241D-02  0.121603D-01
     16  0.588201D-02  0.514882D-02  0.414150D-02 -0.116490D-02 -0.297659D-02
     17  0.000000D+00  0.000000D+00  0.000000D+00  0.000000D+00  0.000000D+00
     18  0.000000D+00  0.000000D+00  0.000000D+00  0.000000D+00  0.000000D+00
     19  0.000000D+00  0.000000D+00  0.000000D+00  0.000000D+00  0.000000D+00
     20  0.000000D+00  0.000000D+00  0.000000D+00  0.000000D+00  0.000000D+00
     21  0.000000D+00  0.000000D+00  0.000000D+00  0.000000D+00  0.000000D+00
     22  0.000000D+00  0.000000D+00  0.000000D+00  0.000000D+00  0.000000D+00
     23  0.000000D+00  0.000000D+00  0.000000D+00  0.000000D+00  0.000000D+00
     24  0.000000D+00  0.000000D+00  0.000000D+00  0.000000D+00  0.000000D+00
               11            12            13            14            15 
     11  0.867749D-01
     12 -0.466965D-01  0.849545D-01
     13 -0.400783D-01 -0.382580D-01  0.783363D-01
     14 -0.161621D-02  0.242189D-02 -0.805687D-03  0.849545D-01
     15  0.214667D-02 -0.161621D-02 -0.530463D-03 -0.466965D-01  0.867749D-01
     16 -0.530464D-03 -0.805687D-03  0.133615D-02 -0.382580D-01 -0.400783D-01
     17  0.000000D+00  0.000000D+00  0.000000D+00  0.000000D+00  0.000000D+00
     18  0.000000D+00  0.000000D+00  0.000000D+00  0.000000D+00  0.000000D+00
     19  0.000000D+00  0.000000D+00  0.000000D+00  0.000000D+00  0.000000D+00
     20  0.000000D+00  0.000000D+00  0.000000D+00  0.000000D+00  0.000000D+00
     21  0.000000D+00  0.000000D+00  0.000000D+00  0.000000D+00  0.000000D+00
     22  0.000000D+00  0.000000D+00  0.000000D+00  0.000000D+00  0.000000D+00
     23  0.000000D+00  0.000000D+00  0.000000D+00  0.000000D+00  0.000000D+00
     24  0.000000D+00  0.000000D+00  0.000000D+00  0.000000D+00  0.000000D+00
               16            17            18            19            20 
     16  0.783363D-01
     17  0.000000D+00  0.103495D-01
     18  0.000000D+00  0.465578D-02  0.137464D-01
     19  0.000000D+00  0.377504D-02 -0.580739D-02  0.161218D-01
     20  0.000000D+00 -0.191865D-02  0.328322D-02  0.653935D-02  0.117412D-01
     21  0.000000D+00 -0.416383D-02 -0.583743D-02  0.629933D-02  0.462573D-02
     22  0.000000D+00 -0.399435D-02 -0.416383D-02  0.258007D-02  0.241060D-02
     23  0.000000D+00  0.241060D-02  0.462573D-02 -0.604741D-02 -0.383227D-02
     24  0.000000D+00  0.258007D-02  0.629933D-02 -0.976667D-02 -0.604741D-02
               21            22            23            24 
     21  0.137464D-01
     22  0.465578D-02  0.103495D-01
     23  0.328322D-02 -0.191865D-02  0.117412D-01
     24 -0.580739D-02  0.377504D-02  0.653935D-02  0.161218D-01
 Leave Link  716 at Thu Feb 26 01:13:59 2015, MaxMem= 1073741824 cpu:       0.1
 (Enter /apps/gaussian/g09_c01/g09/l103.exe)

 GradGradGradGradGradGradGradGradGradGradGradGradGradGradGradGradGradGrad
 Berny optimization.
 Red2BG is reusing G-inverse.
 Internal  Forces:  Max     0.008377094 RMS     0.003168268
 Search for a local minimum.
 Step number   1 out of a maximum of   34
 All quantities printed in internal units (Hartrees-Bohrs-Radians)
 RMS Force = .31683D-02 SwitMx=.10000D-02 MixMth= 1
 Mixed Optimization -- RFO/linear search
 Second derivative matrix not updated -- analytic derivatives used.
 ITU=  0
     Eigenvalues ---    0.01242   0.01355   0.01610   0.02053   0.04131
     Eigenvalues ---    0.11231   0.11706   0.12378   0.12919   0.14856
     Eigenvalues ---    0.22732   0.35201   0.43944   0.44343   0.44788
     Eigenvalues ---    0.44952   0.53183   0.64580
 RFO step:  Lambda=-4.44938712D-04 EMin= 1.24249215D-02
 Linear search not attempted -- first point.
 Iteration  1 RMS(Cart)=  0.01022777 RMS(Int)=  0.00000998
 Iteration  2 RMS(Cart)=  0.00001461 RMS(Int)=  0.00000000
 Iteration  3 RMS(Cart)=  0.00000000 RMS(Int)=  0.00000000
 ClnCor:  largest displacement from symmetrization is 9.98D-11 for atom     1.
 Variable       Old X    -DE/DX   Delta X   Delta X   Delta X     New X
                                 (Linear)    (Quad)   (Total)
    R1        2.05337  -0.00280   0.00000  -0.00759  -0.00759   2.04577
    R2        2.48365  -0.00838   0.00000  -0.01253  -0.01253   2.47112
    R3        2.48365  -0.00838   0.00000  -0.01253  -0.01253   2.47112
    R4        1.91586  -0.00471   0.00000  -0.01052  -0.01052   1.90534
    R5        1.91959  -0.00474   0.00000  -0.01066  -0.01066   1.90893
    R6        1.91959  -0.00474   0.00000  -0.01066  -0.01066   1.90893
    R7        1.91586  -0.00471   0.00000  -0.01052  -0.01052   1.90534
    A1        2.04681   0.00054   0.00000   0.00124   0.00124   2.04805
    A2        2.04681   0.00054   0.00000   0.00124   0.00124   2.04805
    A3        2.18957  -0.00108   0.00000  -0.00248  -0.00248   2.18709
    A4        2.09627  -0.00043   0.00000  -0.00178  -0.00178   2.09449
    A5        2.15059  -0.00032   0.00000  -0.00254  -0.00254   2.14805
    A6        2.03632   0.00075   0.00000   0.00432   0.00432   2.04064
    A7        2.15059  -0.00032   0.00000  -0.00254  -0.00254   2.14805
    A8        2.09627  -0.00043   0.00000  -0.00178  -0.00178   2.09449
    A9        2.03632   0.00075   0.00000   0.00432   0.00432   2.04064
    D1        0.00000   0.00000   0.00000   0.00000   0.00000   0.00000
    D2        3.14159   0.00000   0.00000   0.00000   0.00000   3.14159
    D3        3.14159   0.00000   0.00000   0.00000   0.00000   3.14159
    D4        0.00000   0.00000   0.00000   0.00000   0.00000   0.00000
    D5        3.14159   0.00000   0.00000   0.00000   0.00000   3.14159
    D6        0.00000   0.00000   0.00000   0.00000   0.00000   0.00000
    D7        0.00000   0.00000   0.00000   0.00000   0.00000   0.00000
    D8        3.14159   0.00000   0.00000   0.00000   0.00000   3.14159
         Item               Value     Threshold  Converged?
 Maximum Force            0.008377     0.000002     NO 
 RMS     Force            0.003168     0.000001     NO 
 Maximum Displacement     0.021959     0.000006     NO 
 RMS     Displacement     0.010221     0.000004     NO 
 Predicted change in Energy=-2.226666D-04
 GradGradGradGradGradGradGradGradGradGradGradGradGradGradGradGradGradGrad

 Leave Link  103 at Thu Feb 26 01:13:59 2015, MaxMem= 1073741824 cpu:       0.1
 (Enter /apps/gaussian/g09_c01/g09/l202.exe)
                          Input orientation:                          
 ---------------------------------------------------------------------
 Center     Atomic      Atomic             Coordinates (Angstroms)
 Number     Number       Type             X           Y           Z
 ---------------------------------------------------------------------
      1          6           0        0.000000    0.425904    0.000000
      2          1           0        0.000000    1.508479    0.000000
      3          7           0        1.161543   -0.174759    0.000000
      4          1           0        2.010483    0.369202    0.000000
      5          1           0        1.262395   -1.179873    0.000000
      6          7           0       -1.161543   -0.174759    0.000000
      7          1           0       -1.262395   -1.179873    0.000000
      8          1           0       -2.010483    0.369202    0.000000
 ---------------------------------------------------------------------
                    Distance matrix (angstroms):
                    1          2          3          4          5
     1  C    0.000000
     2  H    1.082575   0.000000
     3  N    1.307661   2.045109   0.000000
     4  H    2.011282   2.310842   1.008262   0.000000
     5  H    2.042587   2.969996   1.010161   1.720252   0.000000
     6  N    1.307661   2.045109   2.323085   3.218328   2.624067
     7  H    2.042587   2.969996   2.624067   3.620962   2.524791
     8  H    2.011282   2.310842   3.218328   4.020965   3.620962
                    6          7          8
     6  N    0.000000
     7  H    1.010161   0.000000
     8  H    1.008262   1.720252   0.000000
 Stoichiometry    CH5N2(1+)
 Framework group  C2V[C2(CH),SGV(H4N2)]
 Deg. of freedom     7
 Full point group                 C2V     NOp   4
 RotChk:  IX=0 Diff= 4.32D-16
 Largest Abelian subgroup         C2V     NOp   4
 Largest concise Abelian subgroup C2      NOp   2
                         Standard orientation:                         
 ---------------------------------------------------------------------
 Center     Atomic      Atomic             Coordinates (Angstroms)
 Number     Number       Type             X           Y           Z
 ---------------------------------------------------------------------
      1          6           0        0.000000    0.000000    0.426066
      2          1           0        0.000000    0.000000    1.508642
      3          7           0        0.000000    1.161543   -0.174596
      4          1           0        0.000000    2.010483    0.369365
      5          1           0        0.000000    1.262395   -1.179710
      6          7           0        0.000000   -1.161543   -0.174596
      7          1           0        0.000000   -1.262395   -1.179710
      8          1           0        0.000000   -2.010483    0.369365
 ---------------------------------------------------------------------
 Rotational constants (GHZ):     60.1221249     10.2834413      8.7814412
 Leave Link  202 at Thu Feb 26 01:13:59 2015, MaxMem= 1073741824 cpu:       0.0
 (Enter /apps/gaussian/g09_c01/g09/l301.exe)
 Standard basis: Aug-CC-pVQZ (5D, 7F)
 Ernie: Thresh=  0.10000D-02 Tol=  0.10000D-05 Strict=F.
 Ernie:  9 primitive shells out of 194 were deleted.
 There are   160 symmetry adapted basis functions of A1  symmetry.
 There are    78 symmetry adapted basis functions of A2  symmetry.
 There are    92 symmetry adapted basis functions of B1  symmetry.
 There are   140 symmetry adapted basis functions of B2  symmetry.
 Integral buffers will be    131072 words long.
 Raffenetti 2 integral format.
 Two-electron integral symmetry is turned on.
   470 basis functions,   657 primitive gaussians,   590 cartesian basis functions
    12 alpha electrons       12 beta electrons
       nuclear repulsion energy        79.8459895535 Hartrees.
 IExCor=  402 DFT=T Ex+Corr=B3LYP ExCW=0 ScaHFX=  0.200000
 ScaDFX=  0.800000  0.720000  1.000000  0.810000 ScalE2=  1.000000  1.000000
 IRadAn=      5 IRanWt=     -1 IRanGd=            0 ICorTp=0
 NAtoms=    8 NActive=    8 NUniq=    5 SFac= 2.56D+00 NAtFMM=   60 NAOKFM=F Big=F
 Leave Link  301 at Thu Feb 26 01:13:59 2015, MaxMem= 1073741824 cpu:       0.3
 (Enter /apps/gaussian/g09_c01/g09/l302.exe)
 NPDir=0 NMtPBC=     1 NCelOv=     1 NCel=       1 NClECP=     1 NCelD=      1
         NCelK=      1 NCelE2=     1 NClLst=     1 CellRange=     0.0.
 One-electron integrals computed using PRISM.
 One-electron integral symmetry used in STVInt
 NBasis=   470 RedAO= T  NBF=   160    78    92   140
 NBsUse=   470 1.00D-06 NBFU=   160    78    92   140
 Precomputing XC quadrature grid using
 IXCGrd= 2 IRadAn=           5 IRanWt=          -1 IRanGd=           0 AccXCQ= 0.00D+00.
 NRdTot=     687 NPtTot=      185464 NUsed=      190390 NTot=      190422
 NSgBfM=   590   590   590   590   590 NAtAll=     8     8.
 Leave Link  302 at Thu Feb 26 01:14:00 2015, MaxMem= 1073741824 cpu:       3.1
 (Enter /apps/gaussian/g09_c01/g09/l303.exe)
 DipDrv:  MaxL=1.
 Leave Link  303 at Thu Feb 26 01:14:00 2015, MaxMem= 1073741824 cpu:       0.5
 (Enter /apps/gaussian/g09_c01/g09/l401.exe)
 Initial guess read from the read-write file.
 B after Tr=     0.000000    0.000000    0.000000
         Rot=    1.000000    0.000000    0.000000    0.000000 Ang=   0.00 deg.
 Guess basis will be translated and rotated to current coordinates.
 Initial guess orbital symmetries:
       Occupied  (B2) (A1) (A1) (A1) (B2) (A1) (A1) (B2) (B2) (A1)
                 (B1) (A2)
       Virtual   (B1) (A1) (A1) (B2) (B1) (A1) (B2) (A1) (B2) (A1)
                 (A2) (B1) (A1) (B2) (A1) (B2) (A1) (B2) (B1) (A1)
                 (A2) (A1) (B2) (B1) (B2) (A1) (B1) (A1) (A1) (A2)
                 (A1) (B2) (A1) (B2) (B1) (A2) (B2) (A1) (B2) (A1)
                 (A1) (B2) (B1) (B2) (A1) (B1) (A2) (B1) (B2) (A1)
                 (B2) (A2) (A1) (B2) (A1) (A1) (B2) (B1) (A1) (B2)
                 (A1) (A2) (A1) (B1) (A2) (B2) (A1) (B1) (A1) (B2)
                 (B1) (A2) (B1) (B2) (A1) (B2) (A1) (B2) (A1) (A2)
                 (A1) (B1) (A2) (B1) (A1) (B2) (B2) (A2) (A1) (A2)
                 (B1) (B2) (B2) (A1) (B2) (A1) (A2) (B2) (A1) (A1)
                 (B1) (B1) (A1) (B2) (B2) (A1) (A2) (A1) (B1) (B2)
                 (B2) (B1) (A1) (A2) (A1) (A1) (B1) (B2) (A2) (B1)
                 (A1) (B2) (A1) (B2) (A1) (B1) (B2) (A2) (A1) (B2)
                 (A2) (A1) (B2) (B1) (B1) (B2) (A1) (A2) (B2) (A1)
                 (B1) (A2) (A1) (B1) (B2) (B2) (A1) (A2) (B1) (B2)
                 (A1) (A2) (B2) (A1) (B1) (A1) (B2) (A1) (A2) (B2)
                 (A1) (A1) (B1) (A2) (B2) (B1) (A1) (A1) (B1) (B2)
                 (B1) (A1) (B2) (A2) (A2) (B1) (B2) (A2) (A1) (B2)
                 (A1) (B1) (B1) (A1) (B2) (A2) (A1) (B2) (A1) (B2)
                 (A1) (A2) (B2) (B1) (B2) (A2) (B2) (A1) (B1) (A2)
                 (A1) (B1) (B2) (A1) (A1) (A2) (B1) (B2) (B2) (A1)
                 (B1) (B2) (A2) (B1) (A1) (A1) (B2) (A1) (A2) (B2)
                 (B1) (B2) (A2) (B1) (B2) (A1) (A1) (A1) (B2) (A2)
                 (B1) (A1) (A2) (A1) (B2) (B1) (B2) (A1) (A2) (B2)
                 (A1) (A1) (B2) (B1) (B2) (A1) (A2) (B2) (B1) (B2)
                 (A1) (A1) (A2) (B1) (B2) (A2) (A1) (B1) (A1) (B2)
                 (A1) (B1) (A2) (A1) (B2) (A2) (A1) (B2) (B1) (A1)
                 (B2) (A2) (B1) (A1) (B2) (A1) (A2) (B2) (B1) (A1)
                 (B2) (A1) (B2) (A2) (B2) (B1) (A1) (B1) (A1) (A2)
                 (B2) (B2) (B1) (A2) (A1) (B2) (A1) (A1) (B2) (A1)
                 (B2) (A1) (B2) (A2) (B1) (B1) (A1) (B1) (B2) (B1)
                 (A1) (A2) (B2) (A1) (B1) (A2) (B1) (A1) (A2) (B2)
                 (A1) (B2) (B1) (A1) (B2) (A2) (B2) (A1) (A1) (B1)
                 (A2) (B1) (B2) (B1) (B2) (A1) (B2) (A2) (B1) (A1)
                 (A1) (A2) (B2) (A2) (A1) (B2) (A2) (A1) (B1) (B1)
                 (B2) (A1) (A2) (B1) (A1) (A2) (B2) (A1) (B1) (B1)
                 (A2) (B2) (A1) (B2) (A1) (A1) (B2) (A1) (B1) (B2)
                 (A2) (B2) (B1) (B2) (A2) (A1) (B1) (A2) (A1) (B2)
                 (B1) (B2) (A1) (A1) (B1) (A2) (B2) (A2) (B2) (A1)
                 (A1) (B2) (B2) (A1) (B1) (A2) (A1) (A1) (B2) (A2)
                 (B1) (B2) (A1) (B1) (B1) (A1) (B2) (A1) (A2) (A2)
                 (B1) (B2) (B2) (B1) (A2) (A2) (A1) (B1) (A1) (B2)
                 (B1) (A1) (A2) (A1) (B2) (B2) (A2) (A1) (B2) (B1)
                 (B2) (A1) (A1) (B2) (B2) (A1) (A1) (B1) (A2) (B1)
                 (A2) (B2) (A1) (B2) (A1) (B2) (A1) (A1) (B2) (A1)
                 (B2) (A1) (B2) (B2) (A1) (A1) (A1) (B2)
 The electronic state of the initial guess is 1-A1.
 Generating alternative initial guess.
 Harris functional with IExCor=  402 diagonalized for initial guess.
 ExpMin= 2.36D-02 ExpMax= 4.58D+04 ExpMxC= 4.42D+02 IAcc=3 IRadAn=         5 AccDes= 0.00D+00
 HarFok:  IExCor=  402 AccDes= 0.00D+00 IRadAn=         5 IDoV= 1
 ScaDFX=  1.000000  1.000000  1.000000  1.000000
 FoFCou: FMM=F IPFlag=           0 FMFlag=      100000 FMFlg1=           0
         NFxFlg=           0 DoJE=T BraDBF=F KetDBF=T FulRan=T
         Omega=  0.000000  0.000000  1.000000  0.000000  0.000000 ICntrl=     500 IOpCl=  0
         NMat0=    1 NMatS0=    1 NMatT0=    0 NMatD0=    1 NMtDS0=    0 NMtDT0=    0
         I1Cent=           4 NGrid=           0.
 Petite list used in FoFCou.
 Harris En= -150.512646457938    
 Leave Link  401 at Thu Feb 26 01:14:02 2015, MaxMem= 1073741824 cpu:      16.5
 (Enter /apps/gaussian/g09_c01/g09/l502.exe)
 Closed shell SCF:
 Requested convergence on RMS density matrix=1.00D-08 within 128 cycles.
 Requested convergence on MAX density matrix=1.00D-06.
 Requested convergence on             energy=1.00D-06.
 No special actions if energy rises.
 Using DIIS extrapolation, IDIIS=  1040.
 Integral symmetry usage will be decided dynamically.
       190305 words used for storage of precomputed grid.
 IEnd=     1262487 IEndB=     1262487 NGot=  1073741824 MDV=  1072844668
 LenX=  1072844668 LenY=  1072495978
 Fock matrices will be formed incrementally for  20 cycles.

 Cycle   1  Pass 1  IDiag  1:
 FoFCou: FMM=F IPFlag=           0 FMFlag=      100000 FMFlg1=           0
         NFxFlg=           0 DoJE=F BraDBF=F KetDBF=F FulRan=T
         Omega=  0.000000  0.000000  1.000000  0.000000  0.000000 ICntrl=       0 IOpCl=  0
         NMat0=    1 NMatS0=    1 NMatT0=    0 NMatD0=    1 NMtDS0=    0 NMtDT0=    0
         I1Cent=           0 NGrid=           0.
 Petite list used in FoFCou.
 E= -150.461431479449    
 DIIS: error= 7.10D-04 at cycle   1 NSaved=   1.
 NSaved= 1 IEnMin= 1 EnMin= -150.461431479449     IErMin= 1 ErrMin= 7.10D-04
 ErrMax= 7.10D-04 EMaxC= 1.00D-01 BMatC= 2.03D-04 BMatP= 2.03D-04
 IDIUse=3 WtCom= 9.93D-01 WtEn= 7.10D-03
 Coeff-Com:  0.100D+01
 Coeff-En:   0.100D+01
 Coeff:      0.100D+01
 Gap=     0.385 Goal=   None    Shift=    0.000
 RMSDP=2.81D-05 MaxDP=2.28D-03              OVMax= 2.83D-03

 Cycle   2  Pass 1  IDiag  1:
 RMSU=  1.98D-05    CP:  1.00D+00
 E= -150.461485132467     Delta-E=       -0.000053653017 Rises=F Damp=F
 DIIS: error= 3.67D-04 at cycle   2 NSaved=   2.
 NSaved= 2 IEnMin= 2 EnMin= -150.461485132467     IErMin= 2 ErrMin= 3.67D-04
 ErrMax= 3.67D-04 EMaxC= 1.00D-01 BMatC= 2.90D-05 BMatP= 2.03D-04
 IDIUse=3 WtCom= 9.96D-01 WtEn= 3.67D-03
 Coeff-Com:  0.184D+00 0.816D+00
 Coeff-En:   0.000D+00 0.100D+01
 Coeff:      0.183D+00 0.817D+00
 Gap=     0.278 Goal=   None    Shift=    0.000
 RMSDP=8.94D-06 MaxDP=5.34D-04 DE=-5.37D-05 OVMax= 1.99D-03

 Cycle   3  Pass 1  IDiag  1:
 RMSU=  6.09D-06    CP:  9.99D-01  9.52D-01
 E= -150.461493401790     Delta-E=       -0.000008269323 Rises=F Damp=F
 DIIS: error= 2.95D-04 at cycle   3 NSaved=   3.
 NSaved= 3 IEnMin= 3 EnMin= -150.461493401790     IErMin= 3 ErrMin= 2.95D-04
 ErrMax= 2.95D-04 EMaxC= 1.00D-01 BMatC= 1.98D-05 BMatP= 2.90D-05
 IDIUse=3 WtCom= 9.97D-01 WtEn= 2.95D-03
 Coeff-Com:  0.383D-02 0.451D+00 0.545D+00
 Coeff-En:   0.000D+00 0.400D+00 0.600D+00
 Coeff:      0.382D-02 0.451D+00 0.545D+00
 Gap=     0.279 Goal=   None    Shift=    0.000
 RMSDP=3.84D-06 MaxDP=2.33D-04 DE=-8.27D-06 OVMax= 9.58D-04

 Cycle   4  Pass 1  IDiag  1:
 RMSU=  7.94D-07    CP:  1.00D+00  9.82D-01  5.94D-01
 E= -150.461508363097     Delta-E=       -0.000014961307 Rises=F Damp=F
 DIIS: error= 6.03D-05 at cycle   4 NSaved=   4.
 NSaved= 4 IEnMin= 4 EnMin= -150.461508363097     IErMin= 4 ErrMin= 6.03D-05
 ErrMax= 6.03D-05 EMaxC= 1.00D-01 BMatC= 2.88D-07 BMatP= 1.98D-05
 IDIUse=1 WtCom= 1.00D+00 WtEn= 0.00D+00
 Coeff-Com: -0.987D-04 0.217D+00 0.273D+00 0.510D+00
 Coeff:     -0.987D-04 0.217D+00 0.273D+00 0.510D+00
 Gap=     0.279 Goal=   None    Shift=    0.000
 RMSDP=6.25D-07 MaxDP=5.06D-05 DE=-1.50D-05 OVMax= 2.59D-04

 Cycle   5  Pass 1  IDiag  1:
 RMSU=  2.79D-07    CP:  1.00D+00  9.81D-01  5.81D-01  5.81D-01
 E= -150.461508600327     Delta-E=       -0.000000237230 Rises=F Damp=F
 DIIS: error= 1.24D-05 at cycle   5 NSaved=   5.
 NSaved= 5 IEnMin= 5 EnMin= -150.461508600327     IErMin= 5 ErrMin= 1.24D-05
 ErrMax= 1.24D-05 EMaxC= 1.00D-01 BMatC= 1.26D-08 BMatP= 2.88D-07
 IDIUse=1 WtCom= 1.00D+00 WtEn= 0.00D+00
 Coeff-Com: -0.517D-03 0.159D-01 0.204D-01 0.186D+00 0.779D+00
 Coeff:     -0.517D-03 0.159D-01 0.204D-01 0.186D+00 0.779D+00
 Gap=     0.279 Goal=   None    Shift=    0.000
 RMSDP=1.05D-07 MaxDP=1.02D-05 DE=-2.37D-07 OVMax= 4.52D-05

 Cycle   6  Pass 1  IDiag  1:
 RMSU=  3.07D-08    CP:  1.00D+00  9.81D-01  5.83D-01  6.40D-01  8.41D-01
 E= -150.461508611296     Delta-E=       -0.000000010969 Rises=F Damp=F
 DIIS: error= 7.28D-07 at cycle   6 NSaved=   6.
 NSaved= 6 IEnMin= 6 EnMin= -150.461508611296     IErMin= 6 ErrMin= 7.28D-07
 ErrMax= 7.28D-07 EMaxC= 1.00D-01 BMatC= 1.14D-10 BMatP= 1.26D-08
 IDIUse=1 WtCom= 1.00D+00 WtEn= 0.00D+00
 Coeff-Com: -0.144D-03 0.130D-02 0.178D-02 0.409D-01 0.207D+00 0.749D+00
 Coeff:     -0.144D-03 0.130D-02 0.178D-02 0.409D-01 0.207D+00 0.749D+00
 Gap=     0.279 Goal=   None    Shift=    0.000
 RMSDP=1.01D-08 MaxDP=5.35D-07 DE=-1.10D-08 OVMax= 2.26D-06

 Cycle   7  Pass 1  IDiag  1:
 RMSU=  5.89D-09    CP:  1.00D+00  9.81D-01  5.83D-01  6.41D-01  8.46D-01
                    CP:  8.96D-01
 E= -150.461508611379     Delta-E=       -0.000000000082 Rises=F Damp=F
 DIIS: error= 1.40D-07 at cycle   7 NSaved=   7.
 NSaved= 7 IEnMin= 7 EnMin= -150.461508611379     IErMin= 7 ErrMin= 1.40D-07
 ErrMax= 1.40D-07 EMaxC= 1.00D-01 BMatC= 2.03D-12 BMatP= 1.14D-10
 IDIUse=1 WtCom= 1.00D+00 WtEn= 0.00D+00
 Coeff-Com: -0.114D-04-0.347D-03-0.397D-03 0.177D-02 0.154D-01 0.124D+00
 Coeff-Com:  0.859D+00
 Coeff:     -0.114D-04-0.347D-03-0.397D-03 0.177D-02 0.154D-01 0.124D+00
 Coeff:      0.859D+00
 Gap=     0.279 Goal=   None    Shift=    0.000
 RMSDP=1.95D-09 MaxDP=1.15D-07 DE=-8.23D-11 OVMax= 4.86D-07

 SCF Done:  E(RB3LYP) =  -150.461508611     A.U. after    7 cycles
             Convg  =    0.1954D-08             -V/T =  2.0049
 KE= 1.497217277027D+02 PE=-5.038796600177D+02 EE= 1.238504341502D+02
 Leave Link  502 at Thu Feb 26 01:17:36 2015, MaxMem= 1073741824 cpu:    1706.8
 (Enter /apps/gaussian/g09_c01/g09/l801.exe)
 Range of M.O.s used for correlation:     1   470
 NBasis=   470 NAE=    12 NBE=    12 NFC=     0 NFV=     0
 NROrb=    470 NOA=    12 NOB=    12 NVA=   458 NVB=   458

 **** Warning!!: The largest alpha MO coefficient is  0.99238018D+02

 Leave Link  801 at Thu Feb 26 01:17:36 2015, MaxMem= 1073741824 cpu:       0.1
 (Enter /apps/gaussian/g09_c01/g09/l1002.exe)
 Minotr:  Closed shell wavefunction.
          Direct CPHF calculation.
          Differentiating once with respect to electric field.
                with respect to dipole field.
          Electric field/nuclear overlap derivatives assumed to be zero.
          Using symmetry in CPHF.
          Requested convergence is 1.0D-08 RMS, and 1.0D-07 maximum.
          Secondary convergence is 1.0D-12 RMS, and 1.0D-12 maximum.
          NewPWx=F KeepS1=T KeepF1=T KeepIn=T MapXYZ=F SortEE=F KeepMc=T.
          MDV=    1073741756 using IRadAn=       1.
 Generate precomputed XC quadrature information.
          Solving linear equations simultaneously, MaxMat=       0.
          There are     3 degrees of freedom in the 1st order CPHF.  IDoFFX=0.
      3 vectors produced by pass  0 Test12= 1.83D-13 3.33D-08 XBig12= 3.40D+01 4.94D+00.
 AX will form     3 AO Fock derivatives at one time.
 Integrals replicated using symmetry in FoFDir.
 MinBra= 0 MaxBra= 4 Meth= 1.
 IRaf=       0 NMat=   3 IRICut=       1 DoRegI=T DoRafI=F ISym2E= 2 JSym2E=2.
      3 vectors produced by pass  1 Test12= 1.83D-13 3.33D-08 XBig12= 1.06D+01 1.02D+00.
      3 vectors produced by pass  2 Test12= 1.83D-13 3.33D-08 XBig12= 1.04D+00 3.18D-01.
      3 vectors produced by pass  3 Test12= 1.83D-13 3.33D-08 XBig12= 2.38D-02 3.64D-02.
      3 vectors produced by pass  4 Test12= 1.83D-13 3.33D-08 XBig12= 2.27D-03 1.11D-02.
      3 vectors produced by pass  5 Test12= 1.83D-13 3.33D-08 XBig12= 2.81D-04 3.73D-03.
[...]
 
 
                                            Autjob by noodles.sh | Great noodly b
 asis sets
                                                            Raman Spectrum
 
     33  33          3                                                 1  1 1      11        1 11                                    
     66  55          1                                                 7  6 6      43        1 00          7  66 55                  
     55  53          9                                                 6  9 1      18        2 84          2  30 42                  
     33  05          9                                                 5  4 8      47        7 62          1  16 60                  
 
     XX  XX          X                                                 X  X X      XX        X XX          X   X  X                  
     XX  X           X                                                             X         X                                       
     XX  X           X                                                                                                               
     X   X           X                                                                                                               
     X   X           X                                                                                                               
         X           X                                                                                                               
         X           X                                                                                                               
         X                                                                                                                           
         X                                                                                                                           
         X                                                                                                                           
         X                                                                                                                           
         X                                                                                                                           
         X                                                                                                                           
         X                                                                                                                           
         X                                                                                                                           
         X                                                                                                                           
         X                                                                                                                           
         X                                                                                                                           
         X                                                                                                                           
         X                                                                                                                           
 
 ***** Axes restored to original set *****
 -------------------------------------------------------------------
 Center     Atomic                   Forces (Hartrees/Bohr)
 Number     Number              X              Y              Z
 -------------------------------------------------------------------
      1        6           0.000000000   -0.000001422    0.000000000
      2        1           0.000000000    0.000000576    0.000000000
      3        7          -0.000001670    0.000000979    0.000000000
      4        1           0.000000390   -0.000000292    0.000000000
      5        1           0.000000523   -0.000000263    0.000000000
      6        7           0.000001670    0.000000979    0.000000000
      7        1          -0.000000523   -0.000000263    0.000000000
      8        1          -0.000000390   -0.000000292    0.000000000
 -------------------------------------------------------------------
 Cartesian Forces:  Max     0.000001670 RMS     0.000000677
 Force constants in Cartesian coordinates: 
                1             2             3             4             5 
      1  0.925038D+00
      2  0.000000D+00  0.830018D+00
      3  0.000000D+00  0.000000D+00  0.168989D+00
      4 -0.646646D-01  0.000000D+00  0.000000D+00  0.709866D-01
      5  0.000000D+00 -0.342790D+00  0.000000D+00  0.000000D+00  0.359365D+00
      6  0.000000D+00  0.000000D+00 -0.548896D-01  0.000000D+00  0.000000D+00
      7 -0.405065D+00  0.153363D+00  0.000000D+00 -0.361466D-03  0.238347D-02
      8  0.139077D+00 -0.250100D+00  0.000000D+00  0.360182D-01 -0.106771D-01
      9  0.000000D+00  0.000000D+00 -0.527741D-01  0.000000D+00  0.000000D+00
     10 -0.277987D-01 -0.172465D-01  0.000000D+00  0.122100D-02  0.135949D-03
     11  0.169032D-01  0.162496D-01  0.000000D+00  0.978703D-03  0.800190D-03
     12  0.000000D+00  0.000000D+00 -0.571846D-02  0.000000D+00  0.000000D+00
     13  0.267698D-02  0.372321D-01  0.000000D+00 -0.402051D-02  0.957040D-03
     14  0.795806D-02 -0.976315D-02  0.000000D+00  0.967060D-03  0.158934D-02
     15  0.000000D+00  0.000000D+00  0.144307D-02  0.000000D+00  0.000000D+00
     16 -0.405065D+00 -0.153363D+00  0.000000D+00 -0.361465D-03 -0.238347D-02
     17 -0.139077D+00 -0.250100D+00  0.000000D+00 -0.360182D-01 -0.106771D-01
     18  0.000000D+00  0.000000D+00 -0.527741D-01  0.000000D+00  0.000000D+00
     19  0.267698D-02 -0.372321D-01  0.000000D+00 -0.402051D-02 -0.957040D-03
     20 -0.795806D-02 -0.976315D-02  0.000000D+00 -0.967060D-03  0.158934D-02
     21  0.000000D+00  0.000000D+00  0.144307D-02  0.000000D+00  0.000000D+00
     22 -0.277987D-01  0.172465D-01  0.000000D+00  0.122100D-02 -0.135949D-03
     23 -0.169032D-01  0.162496D-01  0.000000D+00 -0.978703D-03  0.800190D-03
     24  0.000000D+00  0.000000D+00 -0.571846D-02  0.000000D+00  0.000000D+00
                6             7             8             9            10 
      6  0.316475D-01
      7  0.000000D+00  0.898436D+00
      8  0.000000D+00 -0.151249D-01  0.855728D+00
      9  0.791999D-02  0.000000D+00  0.000000D+00  0.560902D-01
     10  0.000000D+00 -0.332799D+00 -0.173227D+00  0.000000D+00  0.347677D+00
     11  0.000000D+00 -0.177851D+00 -0.191681D+00  0.000000D+00  0.180840D+00
     12 -0.415093D-02  0.000000D+00  0.000000D+00 -0.103708D-01  0.000000D+00
     13  0.000000D+00 -0.793073D-01  0.285978D-01  0.000000D+00  0.105320D-01
     14  0.000000D+00  0.276905D-01 -0.437651D+00  0.000000D+00  0.490701D-02
     15  0.785202D-02  0.000000D+00  0.000000D+00 -0.167771D-01  0.000000D+00
     16  0.000000D+00 -0.848781D-01 -0.109047D-01  0.000000D+00  0.193772D-02
     17  0.000000D+00  0.109047D-01  0.353662D-01  0.000000D+00  0.527776D-02
     18  0.791999D-02  0.000000D+00  0.000000D+00  0.138954D-01  0.000000D+00
     19  0.000000D+00  0.203765D-02  0.841862D-03  0.000000D+00 -0.108812D-03
     20  0.000000D+00  0.518485D-02  0.615843D-03  0.000000D+00 -0.210112D-03
     21  0.785202D-02  0.000000D+00  0.000000D+00 -0.390227D-02  0.000000D+00
     22  0.000000D+00  0.193772D-02 -0.527776D-02  0.000000D+00 -0.660684D-03
     23  0.000000D+00 -0.655048D-02 -0.160062D-02  0.000000D+00 -0.477469D-03
     24 -0.415093D-02  0.000000D+00  0.000000D+00  0.591865D-02  0.000000D+00
               11            12            13            14            15 
     11  0.184976D+00
     12  0.000000D+00  0.128729D-01
     13 -0.281373D-01  0.000000D+00  0.697978D-01
     14 -0.911259D-02  0.000000D+00 -0.370586D-01  0.454083D+00
     15  0.000000D+00 -0.110024D-02  0.000000D+00  0.000000D+00  0.128593D-01
     16  0.655048D-02  0.000000D+00  0.203765D-02 -0.518485D-02  0.000000D+00
     17 -0.160062D-02  0.000000D+00 -0.841862D-03  0.615843D-03  0.000000D+00
     18  0.000000D+00  0.591865D-02  0.000000D+00  0.000000D+00 -0.390227D-02
     19  0.238392D-03  0.000000D+00 -0.160781D-02  0.510682D-03  0.000000D+00
     20 -0.505655D-03  0.000000D+00 -0.510682D-03  0.744394D-03  0.000000D+00
     21  0.000000D+00 -0.597633D-03  0.000000D+00  0.000000D+00  0.222890D-03
     22  0.477469D-03  0.000000D+00 -0.108812D-03  0.210112D-03  0.000000D+00
     23  0.874699D-03  0.000000D+00 -0.238392D-03 -0.505655D-03  0.000000D+00
     24  0.000000D+00  0.314650D-02  0.000000D+00  0.000000D+00 -0.597633D-03
               16            17            18            19            20 
     16  0.898436D+00
     17  0.151249D-01  0.855728D+00
     18  0.000000D+00  0.000000D+00  0.560902D-01
     19 -0.793073D-01 -0.285978D-01  0.000000D+00  0.697978D-01
     20 -0.276905D-01 -0.437651D+00  0.000000D+00  0.370586D-01  0.454083D+00
     21  0.000000D+00  0.000000D+00 -0.167771D-01  0.000000D+00  0.000000D+00
     22 -0.332799D+00  0.173227D+00  0.000000D+00  0.105320D-01 -0.490701D-02
     23  0.177851D+00 -0.191681D+00  0.000000D+00  0.281373D-01 -0.911259D-02
     24  0.000000D+00  0.000000D+00 -0.103708D-01  0.000000D+00  0.000000D+00
               21            22            23            24 
     21  0.128593D-01
     22  0.000000D+00  0.347677D+00
     23  0.000000D+00 -0.180840D+00  0.184976D+00
     24 -0.110024D-02  0.000000D+00  0.000000D+00  0.128729D-01
 Red2BG is reusing G-inverse.
 Force constants in internal coordinates: 
                1             2             3             4             5 
      1  0.359365D+00
      2  0.689473D-02  0.605073D+00
      3  0.689474D-02  0.596010D-01  0.605073D+00
      4  0.546192D-03  0.602894D-02 -0.582581D-02  0.464615D+00
      5 -0.148584D-02  0.905719D-02 -0.351039D-02  0.150667D-03  0.457615D+00
      6 -0.148584D-02 -0.351040D-02  0.905719D-02  0.443795D-03  0.854815D-03
      7  0.546192D-03 -0.582581D-02  0.602894D-02  0.289011D-03  0.443795D-03
      8  0.366057D-02  0.794084D-02 -0.334784D-01 -0.249065D-02  0.373831D-02
      9  0.366057D-02 -0.334784D-01  0.794084D-02  0.692524D-03  0.947934D-03
     10 -0.732113D-02  0.255376D-01  0.255376D-01  0.179812D-02 -0.468624D-02
     11 -0.146967D-02  0.168959D-01  0.363233D-02  0.195406D-02 -0.813545D-02
     12  0.179529D-02  0.768247D-02 -0.105191D-02 -0.704789D-02  0.229243D-02
     13 -0.325628D-03 -0.245784D-01 -0.258042D-02  0.509383D-02  0.584302D-02
     14  0.179529D-02 -0.105191D-02  0.768247D-02 -0.169546D-03  0.927096D-03
     15 -0.146966D-02  0.363233D-02  0.168959D-01  0.182401D-03 -0.734713D-03
     16 -0.325628D-03 -0.258041D-02 -0.245784D-01 -0.128550D-04 -0.192383D-03
     17  0.000000D+00  0.000000D+00  0.000000D+00  0.000000D+00  0.000000D+00
     18  0.000000D+00  0.000000D+00  0.000000D+00  0.000000D+00  0.000000D+00
     19  0.000000D+00  0.000000D+00  0.000000D+00  0.000000D+00  0.000000D+00
     20  0.000000D+00  0.000000D+00  0.000000D+00  0.000000D+00  0.000000D+00
     21  0.000000D+00  0.000000D+00  0.000000D+00  0.000000D+00  0.000000D+00
     22  0.000000D+00  0.000000D+00  0.000000D+00  0.000000D+00  0.000000D+00
     23  0.000000D+00  0.000000D+00  0.000000D+00  0.000000D+00  0.000000D+00
     24  0.000000D+00  0.000000D+00  0.000000D+00  0.000000D+00  0.000000D+00
                6             7             8             9            10 
      6  0.457615D+00
      7  0.150667D-03  0.464615D+00
      8  0.947935D-03  0.692524D-03  0.112690D+00
      9  0.373831D-02 -0.249065D-02 -0.358662D-01  0.112690D+00
     10 -0.468624D-02  0.179812D-02 -0.768238D-01 -0.768238D-01  0.153648D+00
     11 -0.734713D-03  0.182401D-03 -0.841266D-02 -0.375943D-02  0.121721D-01
     12  0.927096D-03 -0.169546D-03  0.955683D-02 -0.394194D-03 -0.916264D-02
     13 -0.192382D-03 -0.128549D-04 -0.114417D-02  0.415362D-02 -0.300946D-02
     14  0.229243D-02 -0.704789D-02 -0.394194D-03  0.955683D-02 -0.916264D-02
     15 -0.813545D-02  0.195406D-02 -0.375943D-02 -0.841266D-02  0.121721D-01
     16  0.584302D-02  0.509383D-02  0.415362D-02 -0.114417D-02 -0.300946D-02
     17  0.000000D+00  0.000000D+00  0.000000D+00  0.000000D+00  0.000000D+00
     18  0.000000D+00  0.000000D+00  0.000000D+00  0.000000D+00  0.000000D+00
     19  0.000000D+00  0.000000D+00  0.000000D+00  0.000000D+00  0.000000D+00
     20  0.000000D+00  0.000000D+00  0.000000D+00  0.000000D+00  0.000000D+00
     21  0.000000D+00  0.000000D+00  0.000000D+00  0.000000D+00  0.000000D+00
     22  0.000000D+00  0.000000D+00  0.000000D+00  0.000000D+00  0.000000D+00
     23  0.000000D+00  0.000000D+00  0.000000D+00  0.000000D+00  0.000000D+00
     24  0.000000D+00  0.000000D+00  0.000000D+00  0.000000D+00  0.000000D+00
               11            12            13            14            15 
     11  0.877134D-01
     12 -0.474210D-01  0.858723D-01
     13 -0.402924D-01 -0.384513D-01  0.787436D-01
     14 -0.163240D-02  0.245922D-02 -0.826824D-03  0.858723D-01
     15  0.214889D-02 -0.163240D-02 -0.516493D-03 -0.474210D-01  0.877134D-01
     16 -0.516493D-03 -0.826824D-03  0.134332D-02 -0.384513D-01 -0.402924D-01
     17  0.000000D+00  0.000000D+00  0.000000D+00  0.000000D+00  0.000000D+00
     18  0.000000D+00  0.000000D+00  0.000000D+00  0.000000D+00  0.000000D+00
     19  0.000000D+00  0.000000D+00  0.000000D+00  0.000000D+00  0.000000D+00
     20  0.000000D+00  0.000000D+00  0.000000D+00  0.000000D+00  0.000000D+00
     21  0.000000D+00  0.000000D+00  0.000000D+00  0.000000D+00  0.000000D+00
     22  0.000000D+00  0.000000D+00  0.000000D+00  0.000000D+00  0.000000D+00
     23  0.000000D+00  0.000000D+00  0.000000D+00  0.000000D+00  0.000000D+00
     24  0.000000D+00  0.000000D+00  0.000000D+00  0.000000D+00  0.000000D+00
               16            17            18            19            20 
     16  0.787436D-01
     17  0.000000D+00  0.106752D-01
     18  0.000000D+00  0.456688D-02  0.140022D-01
     19  0.000000D+00  0.395003D-02 -0.601758D-02  0.164774D-01
     20  0.000000D+00 -0.215834D-02  0.341770D-02  0.650975D-02  0.120858D-01
     21  0.000000D+00 -0.423750D-02 -0.591448D-02  0.634697D-02  0.466998D-02
     22  0.000000D+00 -0.405413D-02 -0.423750D-02  0.267109D-02  0.248772D-02
     23  0.000000D+00  0.248772D-02  0.466998D-02 -0.618037D-02 -0.399810D-02
     24  0.000000D+00  0.267109D-02  0.634697D-02 -0.985624D-02 -0.618037D-02
               21            22            23            24 
     21  0.140022D-01
     22  0.456688D-02  0.106752D-01
     23  0.341771D-02 -0.215834D-02  0.120858D-01
     24 -0.601758D-02  0.395003D-02  0.650975D-02  0.164774D-01
 Leave Link  716 at Thu Feb 26 03:27:04 2015, MaxMem= 1073741824 cpu:       0.1
 (Enter /apps/gaussian/g09_c01/g09/l9999.exe)
 1\1\GINC-CX1-1-18-3\Freq\RB3LYP\Aug-CC-pVQZ\C1H5N2(1+)\JMF02\26-Feb-20
 15\0\\#p opt(VeryTight,CalcAll,Raman) Integral(Grid=UltraFine) b3lyp/A
 UG-cc-pVQZ\\Autjob by noodles.sh | Great noodly basis sets\\1,1\C,0.,0
 .4259370265,0.\H,0.,1.5085490867,0.\N,1.1616660637,-0.1747717204,0.\H,
 2.0106639504,0.3692668954,0.\H,1.2625397534,-1.1799752316,0.\N,-1.1616
 660637,-0.1747717204,0.\H,-1.2625397534,-1.1799752316,0.\H,-2.01066395
 04,0.3692668954,0.\\Version=EM64L-G09RevC.01\State=1-A1\HF=-150.461508
 7\RMSD=2.017e-09\RMSF=6.773e-07\ZeroPoint=0.0723266\Thermal=0.0760669\
 Dipole=0.,-0.0822613,0.\DipoleDeriv=1.9253106,0.,0.,0.,0.394345,0.,0.,
 0.,0.2991539,0.0865443,0.,0.,0.,0.1405697,0.,0.,0.,0.1518178,-1.088548
 9,0.0571666,0.,0.4594212,-0.2727573,0.,0.,0.,-0.3784016,0.3866289,0.05
 38242,0.,0.1043656,0.2125174,0.,0.,0.,0.3254819,0.1959925,-0.0598207,0
 .,-0.1145653,0.2927826,0.,0.,0.,0.3274338,-1.0885489,-0.0571666,0.,-0.
 4594212,-0.2727573,0.,0.,0.,-0.3784016,0.1959925,0.0598207,0.,0.114565
 3,0.2927826,0.,0.,0.,0.3274338,0.3866289,-0.0538242,0.,-0.1043656,0.21
 25174,0.,0.,0.,0.3254819\Polar=37.1649475,0.,24.9512585,0.,0.,18.25397
 12\PolarDeriv=0.0000001,1.1160488,0.,0.,0.,0.,5.7693392,0.,-3.6498154,
 0.,0.,1.4929075,0.,0.,0.,0.,1.413219,0.,0.,0.8797573,0.,0.,0.,0.,0.943
 24,0.,7.3544362,0.,0.,1.2437571,0.,0.,0.,0.,0.8492017,0.,3.0276059,-1.
 1612345,-0.3609257,0.,0.,1.699648,-3.6859603,-0.3547796,3.0489391,0.,0
 .,-0.8612907,0.,0.,0.,3.6537057,-0.8455774,0.,6.7967678,1.1961877,1.68
 49449,0.,0.,0.9081244,2.601642,1.814239,1.2734029,0.,0.,0.539481,0.,0.
 ,0.,0.341326,0.2231289,0.,2.0436567,-1.0328563,0.4983746,0.,0.,0.20944
 38,-2.2719713,2.1864975,-6.1746525,0.,0.,-1.0465226,0.,0.,0.,0.0576008
 ,-0.508762,0.,-3.0276059,-1.1612345,0.3609257,0.,0.,-1.699648,-3.68596
 03,0.3547796,3.0489391,0.,0.,-0.8612907,0.,0.,0.,-3.6537057,-0.8455774
 ,0.,-2.0436567,-1.0328563,-0.4983746,0.,0.,-0.2094438,-2.2719713,-2.18
 64975,-6.1746525,0.,0.,-1.0465226,0.,0.,0.,-0.0576008,-0.508762,0.,-6.
 7967678,1.1961877,-1.6849449,0.,0.,-0.9081244,2.601642,-1.814239,1.273
 4029,0.,0.,0.539481,0.,0.,0.,-0.341326,0.2231289,0.\HyperPolar=0.,27.8
 78321,0.,-6.1550695,0.,0.,0.,0.,0.0217511,0.\PG=C02V [C2(C1H1),SGV(H4N
 2)]\NImag=0\\0.92503816,0.,0.83001755,0.,0.,0.16898856,-0.06466462,0.,
 0.,0.07098658,0.,-0.34278977,0.,0.,0.35936484,0.,0.,-0.05488962,0.,0.,
 0.03164748,-0.40506506,0.15336319,0.,-0.00036147,0.00238347,0.,0.89843
 572,0.13907656,-0.25010032,0.,0.03601824,-0.01067707,0.,-0.01512487,0.
 85572805,0.,0.,-0.05277407,0.,0.,0.00791999,0.,0.,0.05609020,-0.027798
 69,-0.01724646,0.,0.00122100,0.00013595,0.,-0.33279918,-0.17322710,0.,
 0.34767668,0.01690324,0.01624959,0.,0.00097870,0.00080019,0.,-0.177851
 36,-0.19168126,0.,0.18084042,0.18497566,0.,0.,-0.00571846,0.,0.,-0.004
 15093,0.,0.,-0.01037076,0.,0.,0.01287288,0.00267698,0.03723206,0.,-0.0
 0402051,0.00095704,0.,-0.07930727,0.02859777,0.,0.01053198,-0.02813735
 ,0.,0.06979778,0.00795806,-0.00976315,0.,0.00096706,0.00158934,0.,0.02
 769051,-0.43765082,0.,0.00490701,-0.00911259,0.,-0.03705859,0.45408264
 ,0.,0.,0.00144307,0.,0.,0.00785202,0.,0.,-0.01677715,0.,0.,-0.00110024
 ,0.,0.,0.01285932,-0.40506506,-0.15336318,0.,-0.00036147,-0.00238347,0
 .,-0.08487811,-0.01090470,0.,0.00193772,0.00655048,0.,0.00203765,-0.00
 518485,0.,0.89843572,-0.13907656,-0.25010032,0.,-0.03601824,-0.0106770
 7,0.,0.01090470,0.03536620,0.,0.00527776,-0.00160062,0.,-0.00084186,0.
 00061584,0.,0.01512487,0.85572805,0.,0.,-0.05277407,0.,0.,0.00791999,0
 .,0.,0.01389541,0.,0.,0.00591865,0.,0.,-0.00390227,0.,0.,0.05609020,0.
 00267698,-0.03723206,0.,-0.00402051,-0.00095704,0.,0.00203765,0.000841
 86,0.,-0.00010881,0.00023839,0.,-0.00160781,0.00051068,0.,-0.07930727,
 -0.02859777,0.,0.06979778,-0.00795806,-0.00976315,0.,-0.00096706,0.001
 58934,0.,0.00518485,0.00061584,0.,-0.00021011,-0.00050566,0.,-0.000510
 68,0.00074439,0.,-0.02769051,-0.43765082,0.,0.03705859,0.45408264,0.,0
 .,0.00144307,0.,0.,0.00785202,0.,0.,-0.00390227,0.,0.,-0.00059763,0.,0
 .,0.00022289,0.,0.,-0.01677715,0.,0.,0.01285932,-0.02779869,0.01724646
 ,0.,0.00122100,-0.00013595,0.,0.00193772,-0.00527776,0.,-0.00066068,0.
 00047747,0.,-0.00010881,0.00021011,0.,-0.33279918,0.17322710,0.,0.0105
 3198,-0.00490701,0.,0.34767668,-0.01690324,0.01624959,0.,-0.00097870,0
 .00080019,0.,-0.00655048,-0.00160062,0.,-0.00047747,0.00087470,0.,-0.0
 0023839,-0.00050566,0.,0.17785136,-0.19168126,0.,0.02813735,-0.0091125
 9,0.,-0.18084042,0.18497566,0.,0.,-0.00571846,0.,0.,-0.00415093,0.,0.,
 0.00591865,0.,0.,0.00314650,0.,0.,-0.00059763,0.,0.,-0.01037076,0.,0.,
 -0.00110024,0.,0.,0.01287288\\0.,0.00000142,0.,0.,-0.00000058,0.,0.000
 00167,-0.00000098,0.,-0.00000039,0.00000029,0.,-0.00000052,0.00000026,
 0.,-0.00000167,-0.00000098,0.,0.00000052,0.00000026,0.,0.00000039,0.00
 000029,0.\\\@


 LIFE CAN ONLY BE UNDERSTOOD BACKWARD, BUT MUST
 BE LIVED FORWARD. -- KIRKEGAARD
 Job cpu time:  1 days  2 hours 41 minutes 17.0 seconds.
 File lengths (MBytes):  RWF=    178 Int=      0 D2E=      0 Chk=     15 Scr=      1
 Normal termination of Gaussian 09 at Thu Feb 26 03:27:04 2015.
