 Entering Gaussian System, Link 0=g03
 Input=FORMA_CAM-b3lyp_AUG-cc-pVDZ.com
 Output=FORMA_CAM-b3lyp_AUG-cc-pVDZ.log
 Initial command:
 /apps/gaussian/g09_c01/g09/l1.exe /tmp/pbs.8910280.cx1b/Gau-6107.inp -scrdir=/tmp/pbs.8910280.cx1b/
 Entering Link 1 = /apps/gaussian/g09_c01/g09/l1.exe PID=      6115.
  
 Copyright (c) 1988,1990,1992,1993,1995,1998,2003,2009,2011,
            Gaussian, Inc.  All Rights Reserved.
  
 This is part of the Gaussian(R) 09 program.  It is based on
 the Gaussian(R) 03 system (copyright 2003, Gaussian, Inc.),
 the Gaussian(R) 98 system (copyright 1998, Gaussian, Inc.),
 the Gaussian(R) 94 system (copyright 1995, Gaussian, Inc.),
 the Gaussian 92(TM) system (copyright 1992, Gaussian, Inc.),
 the Gaussian 90(TM) system (copyright 1990, Gaussian, Inc.),
 the Gaussian 88(TM) system (copyright 1988, Gaussian, Inc.),
 the Gaussian 86(TM) system (copyright 1986, Carnegie Mellon
 University), and the Gaussian 82(TM) system (copyright 1983,
 Carnegie Mellon University). Gaussian is a federally registered
 trademark of Gaussian, Inc.
  
 This software contains proprietary and confidential information,
 including trade secrets, belonging to Gaussian, Inc.
  
 This software is provided under written license and may be
 used, copied, transmitted, or stored only in accord with that
 written license.
  
 The following legend is applicable only to US Government
 contracts under FAR:
  
                    RESTRICTED RIGHTS LEGEND
  
 Use, reproduction and disclosure by the US Government is
 subject to restrictions as set forth in subparagraphs (a)
 and (c) of the Commercial Computer Software - Restricted
 Rights clause in FAR 52.227-19.
  
 Gaussian, Inc.
 340 Quinnipiac St., Bldg. 40, Wallingford CT 06492
  
  
 ---------------------------------------------------------------
 Warning -- This program may not be used in any manner that
 competes with the business of Gaussian, Inc. or will provide
 assistance to any competitor of Gaussian, Inc.  The licensee
 of this program is prohibited from giving any competitor of
 Gaussian, Inc. access to this program.  By using this program,
 the user acknowledges that Gaussian, Inc. is engaged in the
 business of creating and licensing software in the field of
 computational chemistry and represents and warrants to the
 licensee that it is not a competitor of Gaussian, Inc. and that
 it will not use this program in any manner prohibited above.
 ---------------------------------------------------------------
  

 Cite this work as:
 Gaussian 09, Revision C.01,
 M. J. Frisch, G. W. Trucks, H. B. Schlegel, G. E. Scuseria, 
 M. A. Robb, J. R. Cheeseman, G. Scalmani, V. Barone, B. Mennucci, 
 G. A. Petersson, H. Nakatsuji, M. Caricato, X. Li, H. P. Hratchian, 
 A. F. Izmaylov, J. Bloino, G. Zheng, J. L. Sonnenberg, M. Hada, 
 M. Ehara, K. Toyota, R. Fukuda, J. Hasegawa, M. Ishida, T. Nakajima, 
 Y. Honda, O. Kitao, H. Nakai, T. Vreven, J. A. Montgomery, Jr., 
 J. E. Peralta, F. Ogliaro, M. Bearpark, J. J. Heyd, E. Brothers, 
 K. N. Kudin, V. N. Staroverov, T. Keith, R. Kobayashi, J. Normand, 
 K. Raghavachari, A. Rendell, J. C. Burant, S. S. Iyengar, J. Tomasi, 
 M. Cossi, N. Rega, J. M. Millam, M. Klene, J. E. Knox, J. B. Cross, 
 V. Bakken, C. Adamo, J. Jaramillo, R. Gomperts, R. E. Stratmann, 
 O. Yazyev, A. J. Austin, R. Cammi, C. Pomelli, J. W. Ochterski, 
 R. L. Martin, K. Morokuma, V. G. Zakrzewski, G. A. Voth, 
 P. Salvador, J. J. Dannenberg, S. Dapprich, A. D. Daniels, 
 O. Farkas, J. B. Foresman, J. V. Ortiz, J. Cioslowski, 
 and D. J. Fox, Gaussian, Inc., Wallingford CT, 2010.
 
 ******************************************
 Gaussian 09:  EM64L-G09RevC.01 23-Sep-2011
                26-Feb-2015 
 ******************************************
 %Chk=FORMA_CAM-b3lyp_AUG-cc-pVDZ.chk
 %Mem=8Gb
 %nproc=8
 Will use up to    8 processors via shared memory.
 ----------------------------------------------------------------------
 #p opt(VeryTight,CalcAll,Raman) Integral(Grid=UltraFine) CAM-b3lyp/AUG
 -cc-pVDZ
 ----------------------------------------------------------------------
 1/7=1,10=4,14=-1,18=20,19=15,26=3,38=1/1,3;
 2/9=110,12=2,17=6,18=5,40=1/2;
 3/5=16,7=10,11=2,16=1,25=1,30=1,71=2,74=-40,75=-5/1,2,3;
 4//1;
 5/5=2,38=5/2;
 8/6=4,10=90,11=11/1;
 10/13=10,15=4/2;
 11/6=3,8=1,9=11,15=111,16=1/1,2,10;
 10/6=1/2;
 6/7=2,8=2,9=2,10=2,18=1,28=1/1;
 7/10=1,25=1/1,2,3,16;
 1/7=1,10=4,14=-1,18=20,19=15/3(3);
 2/9=110/2;
 7/8=1,9=1,25=1,44=-1/16;
 99//99;
 2/9=110/2;
 3/5=16,7=10,11=2,16=1,25=1,30=1,71=2,74=-40,75=-5/1,2,3;
 4/5=5,16=3/1;
 5/5=2,38=5/2;
 8/6=4,10=90,11=11/1;
 10/13=10,15=4/2;
 11/6=3,8=1,9=11,15=111,16=1/1,2,10;
 10/6=1/2;
 7/10=1,25=1/1,2,3,16;
 1/7=1,10=4,14=-1,18=20,19=15/3(-9);
 2/9=110/2;
 6/7=2,8=2,9=2,10=2,18=1,19=2,28=1/1;
 7/8=1,9=1,25=1,44=-1/16;
 99//99;
 Leave Link    1 at Thu Feb 26 00:10:03 2015, MaxMem= 1073741824 cpu:       0.3
 (Enter /apps/gaussian/g09_c01/g09/l101.exe)
 ----------------------------------------------
 Autjob by noodles.sh | Great noodly basis sets
 ----------------------------------------------
 Charge =  1 Multiplicity = 1
 Symbolic Z-Matrix:
 C                     0.        0.42727   0. 
 H                     0.        1.51386   0. 
 N                     1.16818  -0.17499   0. 
 H                     2.0221    0.37151   0. 
 H                     1.27341  -1.18533   0. 
 N                    -1.16818  -0.17499   0. 
 H                    -1.27341  -1.18533   0. 
 H                    -2.0221    0.37151   0. 
 
 NAtoms=      8 NQM=        0 NQMF=       0 NMMI=      8 NMMIF=      0
                NMic=       0 NMicF=      0.
                    Isotopes and Nuclear Properties:
 (Nuclear quadrupole moments (NQMom) in fm**2, nuclear magnetic moments (NMagM)
  in nuclear magnetons)

  Atom         1           2           3           4           5           6           7           8
 IAtWgt=          12           1          14           1           1          14           1           1
 AtmWgt=  12.0000000   1.0078250  14.0030740   1.0078250   1.0078250  14.0030740   1.0078250   1.0078250
 NucSpn=           0           1           2           1           1           2           1           1
 AtZEff=   0.0000000   0.0000000   0.0000000   0.0000000   0.0000000   0.0000000   0.0000000   0.0000000
 NQMom=    0.0000000   0.0000000   2.0440000   0.0000000   0.0000000   2.0440000   0.0000000   0.0000000
 NMagM=    0.0000000   2.7928460   0.4037610   2.7928460   2.7928460   0.4037610   2.7928460   2.7928460
 Leave Link  101 at Thu Feb 26 00:10:04 2015, MaxMem= 1073741824 cpu:       0.9
 (Enter /apps/gaussian/g09_c01/g09/l103.exe)

 GradGradGradGradGradGradGradGradGradGradGradGradGradGradGradGradGradGrad
 Berny optimization.
 Initialization pass.
                           ----------------------------
                           !    Initial Parameters    !
                           ! (Angstroms and Degrees)  !
 --------------------------                            --------------------------
 ! Name  Definition              Value          Derivative Info.                !
 --------------------------------------------------------------------------------
 ! R1    R(1,2)                  1.0866         calculate D2E/DX2 analytically  !
 ! R2    R(1,3)                  1.3143         calculate D2E/DX2 analytically  !
 ! R3    R(1,6)                  1.3143         calculate D2E/DX2 analytically  !
 ! R4    R(3,4)                  1.0138         calculate D2E/DX2 analytically  !
 ! R5    R(3,5)                  1.0158         calculate D2E/DX2 analytically  !
 ! R6    R(6,7)                  1.0158         calculate D2E/DX2 analytically  !
 ! R7    R(6,8)                  1.0138         calculate D2E/DX2 analytically  !
 ! A1    A(2,1,3)              117.2736         calculate D2E/DX2 analytically  !
 ! A2    A(2,1,6)              117.2736         calculate D2E/DX2 analytically  !
 ! A3    A(3,1,6)              125.4529         calculate D2E/DX2 analytically  !
 ! A4    A(1,3,4)              120.1077         calculate D2E/DX2 analytically  !
 ! A5    A(1,3,5)              123.2199         calculate D2E/DX2 analytically  !
 ! A6    A(4,3,5)              116.6724         calculate D2E/DX2 analytically  !
 ! A7    A(1,6,7)              123.2199         calculate D2E/DX2 analytically  !
 ! A8    A(1,6,8)              120.1077         calculate D2E/DX2 analytically  !
 ! A9    A(7,6,8)              116.6724         calculate D2E/DX2 analytically  !
 ! D1    D(2,1,3,4)              0.0            calculate D2E/DX2 analytically  !
 ! D2    D(2,1,3,5)            180.0            calculate D2E/DX2 analytically  !
 ! D3    D(6,1,3,4)            180.0            calculate D2E/DX2 analytically  !
 ! D4    D(6,1,3,5)              0.0            calculate D2E/DX2 analytically  !
 ! D5    D(2,1,6,7)            180.0            calculate D2E/DX2 analytically  !
 ! D6    D(2,1,6,8)              0.0            calculate D2E/DX2 analytically  !
 ! D7    D(3,1,6,7)              0.0            calculate D2E/DX2 analytically  !
 ! D8    D(3,1,6,8)            180.0            calculate D2E/DX2 analytically  !
 --------------------------------------------------------------------------------
 Trust Radius=3.00D-01 FncErr=1.00D-07 GrdErr=1.00D-06
 Number of steps in this run=     34 maximum allowed number of steps=    100.
 GradGradGradGradGradGradGradGradGradGradGradGradGradGradGradGradGradGrad

 Leave Link  103 at Thu Feb 26 00:10:04 2015, MaxMem= 1073741824 cpu:       0.0
 (Enter /apps/gaussian/g09_c01/g09/l202.exe)
                          Input orientation:                          
 ---------------------------------------------------------------------
 Center     Atomic      Atomic             Coordinates (Angstroms)
 Number     Number       Type             X           Y           Z
 ---------------------------------------------------------------------
      1          6           0        0.000000    0.427270    0.000000
      2          1           0        0.000000    1.513864    0.000000
      3          7           0        1.168180   -0.174990    0.000000
      4          1           0        2.022103    0.371511    0.000000
      5          1           0        1.273414   -1.185325    0.000000
      6          7           0       -1.168180   -0.174990    0.000000
      7          1           0       -1.273414   -1.185325    0.000000
      8          1           0       -2.022103    0.371511    0.000000
 ---------------------------------------------------------------------
                    Distance matrix (angstroms):
                    1          2          3          4          5
     1  C    0.000000
     2  H    1.086594   0.000000
     3  N    1.314291   2.053502   0.000000
     4  H    2.022872   2.322471   1.013828   0.000000
     5  H    2.054762   2.984494   1.015801   1.727505   0.000000
     6  N    1.314291   2.053502   2.336360   3.236753   2.642377
     7  H    2.054762   2.984494   2.642377   3.644746   2.546828
     8  H    2.022872   2.322471   3.236753   4.044206   3.644746
                    6          7          8
     6  N    0.000000
     7  H    1.015801   0.000000
     8  H    1.013828   1.727505   0.000000
 Stoichiometry    CH5N2(1+)
 Framework group  C2V[C2(CH),SGV(H4N2)]
 Deg. of freedom     7
 Full point group                 C2V     NOp   4
 Largest Abelian subgroup         C2V     NOp   4
 Largest concise Abelian subgroup C2      NOp   2
                         Standard orientation:                         
 ---------------------------------------------------------------------
 Center     Atomic      Atomic             Coordinates (Angstroms)
 Number     Number       Type             X           Y           Z
 ---------------------------------------------------------------------
      1          6           0        0.000000    0.000000    0.427270
      2          1           0        0.000000    0.000000    1.513864
      3          7           0        0.000000    1.168180   -0.174990
      4          1           0        0.000000    2.022103    0.371511
      5          1           0        0.000000    1.273414   -1.185325
      6          7           0        0.000000   -1.168180   -0.174990
      7          1           0        0.000000   -1.273414   -1.185325
      8          1           0        0.000000   -2.022103    0.371511
 ---------------------------------------------------------------------
 Rotational constants (GHZ):     59.6815563     10.1627081      8.6839806
 Leave Link  202 at Thu Feb 26 00:10:04 2015, MaxMem= 1073741824 cpu:       0.0
 (Enter /apps/gaussian/g09_c01/g09/l301.exe)
 Standard basis: Aug-CC-pVDZ (5D, 7F)
 Ernie: Thresh=  0.10000D-02 Tol=  0.10000D-05 Strict=F.
 Ernie:  6 primitive shells out of 110 were deleted.
 There are    46 symmetry adapted basis functions of A1  symmetry.
 There are    13 symmetry adapted basis functions of A2  symmetry.
 There are    18 symmetry adapted basis functions of B1  symmetry.
 There are    37 symmetry adapted basis functions of B2  symmetry.
 Integral buffers will be    131072 words long.
 Raffenetti 2 integral format.
 Two-electron integral symmetry is turned on.
   114 basis functions,   184 primitive gaussians,   120 cartesian basis functions
    12 alpha electrons       12 beta electrons
       nuclear repulsion energy        79.4241064683 Hartrees.
 IExCor=20419 DFT=T Ex+Corr=CAM-B3LYP ExCW=0 ScaHFX=  1.000000
 ScaDFX=  1.000000  1.000000  1.000000  0.810000 ScalE2=  1.000000  1.000000
 IRadAn=      5 IRanWt=     -1 IRanGd=            0 ICorTp=0
  HFx wShort=  0.000000 wLong=  0.330000 cFull=  0.190000 cShort=  0.000000 cLong=  0.460000
  DFx wShort=  0.000000 wLong=  0.330000 cFull=  0.190000 cShort=  0.000000 cLong=  0.460000
 NAtoms=    8 NActive=    8 NUniq=    5 SFac= 2.56D+00 NAtFMM=   60 NAOKFM=F Big=F
 Leave Link  301 at Thu Feb 26 00:10:04 2015, MaxMem= 1073741824 cpu:       0.4
 (Enter /apps/gaussian/g09_c01/g09/l302.exe)
 NPDir=0 NMtPBC=     1 NCelOv=     1 NCel=       1 NClECP=     1 NCelD=      1
         NCelK=      1 NCelE2=     1 NClLst=     1 CellRange=     0.0.
 One-electron integrals computed using PRISM.
 One-electron integral symmetry used in STVInt
 NBasis=   114 RedAO= T  NBF=    46    13    18    37
 NBsUse=   114 1.00D-06 NBFU=    46    13    18    37
 Precomputing XC quadrature grid using
 IXCGrd= 2 IRadAn=           5 IRanWt=          -1 IRanGd=           0 AccXCQ= 0.00D+00.
 NRdTot=     686 NPtTot=      183350 NUsed=      188269 NTot=      188301
 NSgBfM=   120   120   120   120   120 NAtAll=     8     8.
 Leave Link  302 at Thu Feb 26 00:10:04 2015, MaxMem= 1073741824 cpu:       1.3
 (Enter /apps/gaussian/g09_c01/g09/l303.exe)
 DipDrv:  MaxL=1.
 Leave Link  303 at Thu Feb 26 00:10:04 2015, MaxMem= 1073741824 cpu:       0.2
 (Enter /apps/gaussian/g09_c01/g09/l401.exe)
 Harris functional with IExCor=20419 diagonalized for initial guess.
 ExpMin= 2.97D-02 ExpMax= 9.05D+03 ExpMxC= 3.09D+02 IAcc=3 IRadAn=         5 AccDes= 0.00D+00
 HarFok:  IExCor=20419 AccDes= 0.00D+00 IRadAn=         5 IDoV= 1
 ScaDFX=  1.000000  1.000000  1.000000  1.000000
 FoFCou: FMM=F IPFlag=           0 FMFlag=      100000 FMFlg1=           0
         NFxFlg=           0 DoJE=T BraDBF=F KetDBF=T FulRan=T
         Omega=  0.000000  0.000000  1.000000  0.000000  0.000000 ICntrl=     500 IOpCl=  0
         NMat0=    1 NMatS0=    1 NMatT0=    0 NMatD0=    1 NMtDS0=    0 NMtDT0=    0
         I1Cent=           4 NGrid=           0.
 Petite list used in FoFCou.
 Harris En= -144.647487022231    
 Initial guess orbital symmetries:
       Occupied  (B2) (A1) (A1) (A1) (B2) (A1) (A1) (B2) (B2) (A1)
                 (B1) (A2)
       Virtual   (A1) (B2) (A1) (B1) (A1) (B2) (B1) (A1) (B2) (A1)
                 (A2) (A1) (B2) (B1) (A1) (B2) (A1) (B2) (A1) (B1)
                 (A1) (B2) (B2) (A1) (A2) (B1) (A1) (B2) (B2) (A1)
                 (A2) (B1) (A1) (A1) (A1) (A1) (B2) (A2) (B1) (B2)
                 (B2) (A1) (B2) (A1) (B1) (B2) (A1) (B2) (A1) (B2)
                 (A2) (A1) (B1) (B2) (A2) (B1) (A1) (A1) (B2) (A2)
                 (A1) (B1) (A1) (B2) (B1) (B2) (A1) (A2) (B2) (A1)
                 (B1) (A2) (B1) (A1) (B2) (A2) (B2) (A1) (A1) (B1)
                 (A1) (B2) (B2) (A1) (B2) (B2) (A1) (A1) (B1) (A2)
                 (B2) (B1) (A1) (A2) (B2) (A1) (B2) (A1) (B2) (A1)
                 (B2) (A1)
 The electronic state of the initial guess is 1-A1.
 Leave Link  401 at Thu Feb 26 00:10:04 2015, MaxMem= 1073741824 cpu:       1.9
 (Enter /apps/gaussian/g09_c01/g09/l502.exe)
 Closed shell SCF:
 Requested convergence on RMS density matrix=1.00D-08 within 128 cycles.
 Requested convergence on MAX density matrix=1.00D-06.
 Requested convergence on             energy=1.00D-06.
 No special actions if energy rises.
 Using DIIS extrapolation, IDIIS=  1040.
 Integral symmetry usage will be decided dynamically.
       188184 words used for storage of precomputed grid.
 IEnd=      251662 IEndB=      251662 NGot=  1073741824 MDV=  1073521323
 LenX=  1073521323 LenY=  1073506482
 Fock matrices will be formed incrementally for  20 cycles.

 Cycle   1  Pass 1  IDiag  1:
 FoFJK:  IHMeth= 1 ICntrl=     0 DoSepK=T KAlg= 1 I1Cent= 0 FoldK=F
 FoFCou: FMM=F IPFlag=           0 FMFlag=      100000 FMFlg1=           0
         NFxFlg=           0 DoJE=T BraDBF=F KetDBF=F FulRan=T
         Omega=  0.000000  0.000000  1.000000  0.000000  0.000000 ICntrl=     500 IOpCl=  0
         NMat0=    1 NMatS0=    1 NMatT0=    0 NMatD0=    1 NMtDS0=    0 NMtDT0=    0
         I1Cent=           0 NGrid=           0.
 Petite list used in FoFCou.
 E= -150.301458220027    
 DIIS: error= 2.15D-02 at cycle   1 NSaved=   1.
 NSaved= 1 IEnMin= 1 EnMin= -150.301458220027     IErMin= 1 ErrMin= 2.15D-02
 ErrMax= 2.15D-02 EMaxC= 1.00D-01 BMatC= 4.48D-02 BMatP= 4.48D-02
 IDIUse=3 WtCom= 7.85D-01 WtEn= 2.15D-01
 Coeff-Com:  0.100D+01
 Coeff-En:   0.100D+01
 Coeff:      0.100D+01
 Gap=     0.408 Goal=   None    Shift=    0.000
 GapD=    0.408 DampG=2.000 DampE=0.500 DampFc=1.0000 IDamp=-1.
 RMSDP=3.70D-03 MaxDP=1.06D-01              OVMax= 7.55D-02

 Cycle   2  Pass 1  IDiag  1:
 RMSU=  2.52D-03    CP:  9.58D-01
 FoFJK:  IHMeth= 1 ICntrl=     0 DoSepK=T KAlg= 1 I1Cent= 0 FoldK=F
 E= -150.321993646409     Delta-E=       -0.020535426382 Rises=F Damp=F
 DIIS: error= 8.32D-03 at cycle   2 NSaved=   2.
 NSaved= 2 IEnMin= 2 EnMin= -150.321993646409     IErMin= 2 ErrMin= 8.32D-03
 ErrMax= 8.32D-03 EMaxC= 1.00D-01 BMatC= 1.02D-02 BMatP= 4.48D-02
 IDIUse=3 WtCom= 9.17D-01 WtEn= 8.32D-02
 Coeff-Com:  0.272D+00 0.728D+00
 Coeff-En:   0.000D+00 0.100D+01
 Coeff:      0.249D+00 0.751D+00
 Gap=     0.389 Goal=   None    Shift=    0.000
 RMSDP=1.04D-03 MaxDP=2.35D-02 DE=-2.05D-02 OVMax= 2.82D-02

 Cycle   3  Pass 1  IDiag  1:
 RMSU=  6.89D-04    CP:  9.45D-01  9.48D-01
 FoFJK:  IHMeth= 1 ICntrl=     0 DoSepK=T KAlg= 1 I1Cent= 0 FoldK=F
 E= -150.330007574050     Delta-E=       -0.008013927641 Rises=F Damp=F
 DIIS: error= 3.48D-03 at cycle   3 NSaved=   3.
 NSaved= 3 IEnMin= 3 EnMin= -150.330007574050     IErMin= 3 ErrMin= 3.48D-03
 ErrMax= 3.48D-03 EMaxC= 1.00D-01 BMatC= 1.41D-03 BMatP= 1.02D-02
 IDIUse=3 WtCom= 9.65D-01 WtEn= 3.48D-02
 Coeff-Com: -0.115D-01 0.262D+00 0.749D+00
 Coeff-En:   0.000D+00 0.000D+00 0.100D+01
 Coeff:     -0.111D-01 0.253D+00 0.758D+00
 Gap=     0.389 Goal=   None    Shift=    0.000
 RMSDP=2.98D-04 MaxDP=6.48D-03 DE=-8.01D-03 OVMax= 1.04D-02

 Cycle   4  Pass 1  IDiag  1:
 RMSU=  1.03D-04    CP:  9.45D-01  1.01D+00  8.32D-01
 FoFJK:  IHMeth= 1 ICntrl=     0 DoSepK=T KAlg= 1 I1Cent= 0 FoldK=F
 E= -150.331296508473     Delta-E=       -0.001288934423 Rises=F Damp=F
 DIIS: error= 4.35D-04 at cycle   4 NSaved=   4.
 NSaved= 4 IEnMin= 4 EnMin= -150.331296508473     IErMin= 4 ErrMin= 4.35D-04
 ErrMax= 4.35D-04 EMaxC= 1.00D-01 BMatC= 2.11D-05 BMatP= 1.41D-03
 IDIUse=3 WtCom= 9.96D-01 WtEn= 4.35D-03
 Coeff-Com: -0.678D-02 0.724D-01 0.255D+00 0.679D+00
 Coeff-En:   0.000D+00 0.000D+00 0.000D+00 0.100D+01
 Coeff:     -0.675D-02 0.721D-01 0.254D+00 0.680D+00
 Gap=     0.388 Goal=   None    Shift=    0.000
 RMSDP=4.49D-05 MaxDP=1.03D-03 DE=-1.29D-03 OVMax= 1.33D-03

 Cycle   5  Pass 1  IDiag  1:
 RMSU=  3.12D-05    CP:  9.45D-01  1.00D+00  8.35D-01  1.05D+00
 FoFJK:  IHMeth= 1 ICntrl=     0 DoSepK=T KAlg= 1 I1Cent= 0 FoldK=F
 E= -150.331311405063     Delta-E=       -0.000014896590 Rises=F Damp=F
 DIIS: error= 1.80D-04 at cycle   5 NSaved=   5.
 NSaved= 5 IEnMin= 5 EnMin= -150.331311405063     IErMin= 5 ErrMin= 1.80D-04
 ErrMax= 1.80D-04 EMaxC= 1.00D-01 BMatC= 2.48D-06 BMatP= 2.11D-05
 IDIUse=3 WtCom= 9.98D-01 WtEn= 1.80D-03
 Coeff-Com: -0.381D-03-0.159D-01-0.256D-01 0.255D+00 0.787D+00
 Coeff-En:   0.000D+00 0.000D+00 0.000D+00 0.000D+00 0.100D+01
 Coeff:     -0.381D-03-0.159D-01-0.256D-01 0.255D+00 0.787D+00
 Gap=     0.389 Goal=   None    Shift=    0.000
 RMSDP=1.58D-05 MaxDP=4.65D-04 DE=-1.49D-05 OVMax= 9.31D-04

 Cycle   6  Pass 1  IDiag  1:
 RMSU=  6.76D-06    CP:  9.45D-01  1.00D+00  8.41D-01  1.13D+00  9.80D-01
 FoFJK:  IHMeth= 1 ICntrl=     0 DoSepK=T KAlg= 1 I1Cent= 0 FoldK=F
 E= -150.331314135346     Delta-E=       -0.000002730283 Rises=F Damp=F
 DIIS: error= 3.04D-05 at cycle   6 NSaved=   6.
 NSaved= 6 IEnMin= 6 EnMin= -150.331314135346     IErMin= 6 ErrMin= 3.04D-05
 ErrMax= 3.04D-05 EMaxC= 1.00D-01 BMatC= 6.82D-08 BMatP= 2.48D-06
 IDIUse=1 WtCom= 1.00D+00 WtEn= 0.00D+00
 Coeff-Com:  0.264D-03-0.578D-02-0.160D-01-0.947D-02 0.139D+00 0.892D+00
 Coeff:      0.264D-03-0.578D-02-0.160D-01-0.947D-02 0.139D+00 0.892D+00
 Gap=     0.389 Goal=   None    Shift=    0.000
 RMSDP=3.23D-06 MaxDP=7.42D-05 DE=-2.73D-06 OVMax= 8.55D-05

 Cycle   7  Pass 1  IDiag  1:
 RMSU=  1.10D-06    CP:  9.45D-01  1.00D+00  8.41D-01  1.14D+00  1.03D+00
                    CP:  1.01D+00
 FoFJK:  IHMeth= 1 ICntrl=     0 DoSepK=T KAlg= 1 I1Cent= 0 FoldK=F
 E= -150.331314210366     Delta-E=       -0.000000075020 Rises=F Damp=F
 DIIS: error= 3.19D-06 at cycle   7 NSaved=   7.
 NSaved= 7 IEnMin= 7 EnMin= -150.331314210366     IErMin= 7 ErrMin= 3.19D-06
 ErrMax= 3.19D-06 EMaxC= 1.00D-01 BMatC= 1.12D-09 BMatP= 6.82D-08
 IDIUse=1 WtCom= 1.00D+00 WtEn= 0.00D+00
 Coeff-Com:  0.351D-04 0.154D-04-0.710D-03-0.954D-02-0.521D-02 0.581D-01
 Coeff-Com:  0.957D+00
 Coeff:      0.351D-04 0.154D-04-0.710D-03-0.954D-02-0.521D-02 0.581D-01
 Coeff:      0.957D+00
 Gap=     0.389 Goal=   None    Shift=    0.000
 RMSDP=4.91D-07 MaxDP=9.13D-06 DE=-7.50D-08 OVMax= 2.00D-05

 Cycle   8  Pass 1  IDiag  1:
 RMSU=  2.58D-07    CP:  9.45D-01  1.00D+00  8.41D-01  1.14D+00  1.03D+00
                    CP:  1.03D+00  1.08D+00
 FoFJK:  IHMeth= 1 ICntrl=     0 DoSepK=T KAlg= 1 I1Cent= 0 FoldK=F
 E= -150.331314212054     Delta-E=       -0.000000001689 Rises=F Damp=F
 DIIS: error= 1.03D-06 at cycle   8 NSaved=   8.
 NSaved= 8 IEnMin= 8 EnMin= -150.331314212054     IErMin= 8 ErrMin= 1.03D-06
 ErrMax= 1.03D-06 EMaxC= 1.00D-01 BMatC= 8.23D-11 BMatP= 1.12D-09
 IDIUse=1 WtCom= 1.00D+00 WtEn= 0.00D+00
 Coeff-Com: -0.123D-04 0.369D-03 0.881D-03-0.110D-02-0.754D-02-0.489D-01
 Coeff-Com:  0.114D+00 0.942D+00
 Coeff:     -0.123D-04 0.369D-03 0.881D-03-0.110D-02-0.754D-02-0.489D-01
 Coeff:      0.114D+00 0.942D+00
 Gap=     0.389 Goal=   None    Shift=    0.000
 RMSDP=1.48D-07 MaxDP=4.98D-06 DE=-1.69D-09 OVMax= 3.62D-06

 Cycle   9  Pass 1  IDiag  1:
 RMSU=  6.19D-08    CP:  9.45D-01  1.00D+00  8.41D-01  1.14D+00  1.03D+00
                    CP:  1.03D+00  1.13D+00  1.12D+00
 FoFJK:  IHMeth= 1 ICntrl=     0 DoSepK=T KAlg= 1 I1Cent= 0 FoldK=F
 E= -150.331314212163     Delta-E=       -0.000000000108 Rises=F Damp=F
 DIIS: error= 1.06D-07 at cycle   9 NSaved=   9.
 NSaved= 9 IEnMin= 9 EnMin= -150.331314212163     IErMin= 9 ErrMin= 1.06D-07
 ErrMax= 1.06D-07 EMaxC= 1.00D-01 BMatC= 1.06D-12 BMatP= 8.23D-11
 IDIUse=1 WtCom= 1.00D+00 WtEn= 0.00D+00
 Coeff-Com:  0.701D-06-0.414D-04-0.864D-04 0.203D-03 0.126D-02 0.410D-02
 Coeff-Com: -0.289D-01-0.104D+00 0.113D+01
 Coeff:      0.701D-06-0.414D-04-0.864D-04 0.203D-03 0.126D-02 0.410D-02
 Coeff:     -0.289D-01-0.104D+00 0.113D+01
 Gap=     0.389 Goal=   None    Shift=    0.000
 RMSDP=2.30D-08 MaxDP=8.01D-07 DE=-1.08D-10 OVMax= 7.37D-07

 Cycle  10  Pass 1  IDiag  1:
 RMSU=  5.96D-09    CP:  9.45D-01  1.00D+00  8.41D-01  1.14D+00  1.03D+00
                    CP:  1.03D+00  1.13D+00  1.15D+00  1.14D+00
 FoFJK:  IHMeth= 1 ICntrl=     0 DoSepK=T KAlg= 1 I1Cent= 0 FoldK=F
 E= -150.331314212164     Delta-E=       -0.000000000001 Rises=F Damp=F
 DIIS: error= 1.49D-08 at cycle  10 NSaved=  10.
 NSaved=10 IEnMin=10 EnMin= -150.331314212164     IErMin=10 ErrMin= 1.49D-08
 ErrMax= 1.49D-08 EMaxC= 1.00D-01 BMatC= 2.06D-14 BMatP= 1.06D-12
 IDIUse=1 WtCom= 1.00D+00 WtEn= 0.00D+00
 Coeff-Com:  0.118D-06-0.298D-08-0.304D-05-0.220D-04-0.154D-04 0.657D-04
 Coeff-Com:  0.240D-02-0.125D-02-0.158D+00 0.116D+01
 Coeff:      0.118D-06-0.298D-08-0.304D-05-0.220D-04-0.154D-04 0.657D-04
 Coeff:      0.240D-02-0.125D-02-0.158D+00 0.116D+01
 Gap=     0.389 Goal=   None    Shift=    0.000
 RMSDP=3.18D-09 MaxDP=1.00D-07 DE=-1.11D-12 OVMax= 7.58D-08

 SCF Done:  E(RCAM-B3LYP) =  -150.331314212     A.U. after   10 cycles
             Convg  =    0.3184D-08             -V/T =  2.0068
 KE= 1.493143009438D+02 PE=-5.024421270853D+02 EE= 1.233724054610D+02
 Leave Link  502 at Thu Feb 26 00:10:10 2015, MaxMem= 1073741824 cpu:      45.9
 (Enter /apps/gaussian/g09_c01/g09/l801.exe)
 Range of M.O.s used for correlation:     1   114
 NBasis=   114 NAE=    12 NBE=    12 NFC=     0 NFV=     0
 NROrb=    114 NOA=    12 NOB=    12 NVA=   102 NVB=   102

 **** Warning!!: The largest alpha MO coefficient is  0.22755302D+02

 Leave Link  801 at Thu Feb 26 00:10:10 2015, MaxMem= 1073741824 cpu:       0.1
 (Enter /apps/gaussian/g09_c01/g09/l1002.exe)
 Minotr:  Closed shell wavefunction.
          Direct CPHF calculation.
          Differentiating once with respect to electric field.
                with respect to dipole field.
          Electric field/nuclear overlap derivatives assumed to be zero.
          Using symmetry in CPHF.
          Requested convergence is 1.0D-08 RMS, and 1.0D-07 maximum.
          Secondary convergence is 1.0D-12 RMS, and 1.0D-12 maximum.
          NewPWx=F KeepS1=T KeepF1=T KeepIn=T MapXYZ=F SortEE=F KeepMc=T.
          MDV=    1073741756 using IRadAn=       1.
 Generate precomputed XC quadrature information.
          Solving linear equations simultaneously, MaxMat=       0.
          There are     3 degrees of freedom in the 1st order CPHF.  IDoFFX=0.
      3 vectors produced by pass  0 Test12= 4.08D-14 3.33D-08 XBig12= 1.92D+01 3.50D+00.
 AX will form     3 AO Fock derivatives at one time.
 FoFJK:  IHMeth= 1 ICntrl=     0 DoSepK=T KAlg= 1 I1Cent= 0 FoldK=F
 FoFCou: FMM=F IPFlag=           0 FMFlag=      100000 FMFlg1=           0
         NFxFlg=           0 DoJE=T BraDBF=F KetDBF=F FulRan=T
         Omega=  0.000000  0.000000  1.000000  0.000000  0.000000 ICntrl=     500 IOpCl=  0
         NMat0=    3 NMatS0=    3 NMatT0=    0 NMatD0=    3 NMtDS0=    0 NMtDT0=    0
         I1Cent=           0 NGrid=           0.
 Symmetry not used in FoFCou.
      3 vectors produced by pass  1 Test12= 4.08D-14 3.33D-08 XBig12= 3.36D+00 5.12D-01.
 FoFJK:  IHMeth= 1 ICntrl=     0 DoSepK=T KAlg= 1 I1Cent= 0 FoldK=F
      3 vectors produced by pass  2 Test12= 4.08D-14 3.33D-08 XBig12= 5.47D-01 3.01D-01.
 FoFJK:  IHMeth= 1 ICntrl=     0 DoSepK=T KAlg= 1 I1Cent= 0 FoldK=F
      3 vectors produced by pass  3 Test12= 4.08D-14 3.33D-08 XBig12= 1.88D-02 3.96D-02.
 FoFJK:  IHMeth= 1 ICntrl=     0 DoSepK=T KAlg= 1 I1Cent= 0 FoldK=F
      3 vectors produced by pass  4 Test12= 4.08D-14 3.33D-08 XBig12= 6.53D-04 4.97D-03.
 FoFJK:  IHMeth= 1 ICntrl=     0 DoSepK=T KAlg= 1 I1Cent= 0 FoldK=F
      3 vectors produced by pass  5 Test12= 4.08D-14 3.33D-08 XBig12= 1.05D-04 4.29D-03.
 FoFJK:  IHMeth= 1 ICntrl=     0 DoSepK=T KAlg= 1 I1Cent= 0 FoldK=F
      3 vectors produced by pass  6 Test12= 4.08D-14 3.33D-08 XBig12= 3.04D-06 4.97D-04.
 FoFJK:  IHMeth= 1 ICntrl=     0 DoSepK=T KAlg= 1 I1Cent= 0 FoldK=F
      3 vectors produced by pass  7 Test12= 4.08D-14 3.33D-08 XBig12= 6.54D-08 6.03D-05.
 FoFJK:  IHMeth= 1 ICntrl=     0 DoSepK=T KAlg= 1 I1Cent= 0 FoldK=F
      2 vectors produced by pass  8 Test12= 4.08D-14 3.33D-08 XBig12= 7.61D-10 6.90D-06.
 FoFJK:  IHMeth= 1 ICntrl=     0 DoSepK=T KAlg= 1 I1Cent= 0 FoldK=F
      2 vectors produced by pass  9 Test12= 4.08D-14 3.33D-08 XBig12= 6.81D-12 5.06D-07.
 FoFJK:  IHMeth= 1 ICntrl=     0 DoSepK=T KAlg= 1 I1Cent= 0 FoldK=F
      1 vectors produced by pass 10 Test12= 4.08D-14 3.33D-08 XBig12= 8.55D-14 5.64D-08.
 FoFJK:  IHMeth= 1 ICntrl=     0 DoSepK=T KAlg= 1 I1Cent= 0 FoldK=F
 Inverted reduced A of dimension    29 with in-core refinement.
 End of Minotr Frequency-dependent properties file   721 does not exist.
 End of Minotr Frequency-dependent properties file   722 does not exist.
 Leave Link 1002 at Thu Feb 26 00:10:24 2015, MaxMem= 1073741824 cpu:     107.1
 (Enter /apps/gaussian/g09_c01/g09/l1101.exe)
 Using compressed storage, NAtomX=     8.
 Will process   9 centers per pass.
 Leave Link 1101 at Thu Feb 26 00:10:24 2015, MaxMem= 1073741824 cpu:       1.2
 (Enter /apps/gaussian/g09_c01/g09/l1102.exe)
 Symmetrizing basis deriv contribution to polar:
 IMax=3 JMax=2 DiffMx= 0.00D+00
 Leave Link 1102 at Thu Feb 26 00:10:24 2015, MaxMem= 1073741824 cpu:       0.2
 (Enter /apps/gaussian/g09_c01/g09/l1110.exe)
 Forming Gx(P) for the SCF density, NAtomX=     8.
 Integral derivatives from FoFDir/FoFCou, PRISM(SPDF).
 Do as many integral derivatives as possible in FoFDir.
 G2DrvN: MDV=    1073741656.
 G2DrvN: will do     9 centers at a time, making    1 passes doing MaxLOS=2.
 Calling FoFCou, ICntrl=  3107 FMM=F I1Cent=   0 AccDes= 0.00D+00.
 FoFJK:  IHMeth= 1 ICntrl=  3107 DoSepK=T KAlg= 1 I1Cent= 0 FoldK=F
 FoFCou: FMM=F IPFlag=           0 FMFlag=      100000 FMFlg1=           0
         NFxFlg=           0 DoJE=F BraDBF=F KetDBF=F FulRan=T
         Omega=  0.000000  0.000000  1.000000  0.000000  0.000000 ICntrl=    3507 IOpCl=  0
         NMat0=    1 NMatS0=    1 NMatT0=    0 NMatD0=    4 NMtDS0=    3 NMtDT0=    0
         I1Cent=           0 NGrid=           0.
 Petite list used in FoFCou.
 FoFDir/FoFCou used for L=0 through L=2.
 End of G2Drv Frequency-dependent properties file   721 does not exist.
 End of G2Drv Frequency-dependent properties file   722 does not exist.
 Leave Link 1110 at Thu Feb 26 00:10:31 2015, MaxMem= 1073741824 cpu:      54.0
 (Enter /apps/gaussian/g09_c01/g09/l1002.exe)
 Minotr:  Closed shell wavefunction.
          IDoAtm=11111111
          Direct CPHF calculation.
          Differentiating once with respect to electric field.
                with respect to dipole field.
          Differentiating once with respect to nuclear coordinates.
          Using symmetry in CPHF.
          Requested convergence is 1.0D-08 RMS, and 1.0D-07 maximum.
          Secondary convergence is 1.0D-12 RMS, and 1.0D-12 maximum.
          NewPWx=T KeepS1=F KeepF1=F KeepIn=T MapXYZ=F SortEE=F KeepMc=T.
          MDV=    1073741740 using IRadAn=       1.
 Generate precomputed XC quadrature information.
          Solving linear equations simultaneously, MaxMat=       0.
 FoFJK:  IHMeth= 1 ICntrl=     0 DoSepK=T KAlg= 1 I1Cent= 0 FoldK=F
 FoFCou: FMM=F IPFlag=           0 FMFlag=      100000 FMFlg1=           0
         NFxFlg=           0 DoJE=F BraDBF=F KetDBF=F FulRan=T
         Omega=  0.000000  0.000000  1.000000  0.000000  0.000000 ICntrl=     500 IOpCl=  0
         NMat0=   18 NMatS0=   18 NMatT0=    0 NMatD0=   18 NMtDS0=    0 NMtDT0=    0
         I1Cent=           0 NGrid=           0.
 Integrals replicated using symmetry in FoFCou.
          There are    18 degrees of freedom in the 1st order CPHF.  IDoFFX=4.
 Will reuse    3 saved solutions.
     15 vectors produced by pass  0 Test12= 6.80D-15 5.56D-09 XBig12= 1.24D-01 1.35D-01.
 AX will form    15 AO Fock derivatives at one time.
 FoFJK:  IHMeth= 1 ICntrl=     0 DoSepK=T KAlg= 1 I1Cent= 0 FoldK=F
     15 vectors produced by pass  1 Test12= 6.80D-15 5.56D-09 XBig12= 8.93D-03 4.61D-02.
 FoFJK:  IHMeth= 1 ICntrl=     0 DoSepK=T KAlg= 1 I1Cent= 0 FoldK=F
     15 vectors produced by pass  2 Test12= 6.80D-15 5.56D-09 XBig12= 4.48D-04 5.45D-03.
 FoFJK:  IHMeth= 1 ICntrl=     0 DoSepK=T KAlg= 1 I1Cent= 0 FoldK=F
     15 vectors produced by pass  3 Test12= 6.80D-15 5.56D-09 XBig12= 3.10D-06 5.08D-04.
 FoFJK:  IHMeth= 1 ICntrl=     0 DoSepK=T KAlg= 1 I1Cent= 0 FoldK=F
     15 vectors produced by pass  4 Test12= 6.80D-15 5.56D-09 XBig12= 1.41D-08 2.48D-05.
 FoFJK:  IHMeth= 1 ICntrl=     0 DoSepK=T KAlg= 1 I1Cent= 0 FoldK=F
     15 vectors produced by pass  5 Test12= 6.80D-15 5.56D-09 XBig12= 5.46D-11 1.38D-06.
 FoFJK:  IHMeth= 1 ICntrl=     0 DoSepK=T KAlg= 1 I1Cent= 0 FoldK=F
     10 vectors produced by pass  6 Test12= 6.80D-15 5.56D-09 XBig12= 1.97D-13 9.13D-08.
 FoFJK:  IHMeth= 1 ICntrl=     0 DoSepK=T KAlg= 1 I1Cent= 0 FoldK=F
      1 vectors produced by pass  7 Test12= 6.80D-15 5.56D-09 XBig12= 6.08D-16 5.96D-09.
 FoFJK:  IHMeth= 1 ICntrl=     0 DoSepK=T KAlg= 1 I1Cent= 0 FoldK=F
 Inverted reduced A of dimension   101 with in-core refinement.
 FullF1:  Do perturbations    1 to    18.
 FoFJK:  IHMeth= 1 ICntrl=     0 DoSepK=T KAlg= 1 I1Cent= 0 FoldK=F
 Isotropic polarizability for W=    0.000000       26.92 Bohr**3.
 FoFJK:  IHMeth= 1 ICntrl=     0 DoSepK=T KAlg= 1 I1Cent= 0 FoldK=F
 FullF1:  Do perturbations    1 to     6.
 FoFJK:  IHMeth= 1 ICntrl=     0 DoSepK=T KAlg= 1 I1Cent= 0 FoldK=F
 End of Minotr Frequency-dependent properties file   721 does not exist.
 End of Minotr Frequency-dependent properties file   722 does not exist.
 Leave Link 1002 at Thu Feb 26 00:10:51 2015, MaxMem= 1073741824 cpu:     153.8
 (Enter /apps/gaussian/g09_c01/g09/l601.exe)
 Copying SCF densities to generalized density rwf, IOpCl= 0 IROHF=0.

 **********************************************************************

            Population analysis using the SCF density.

 **********************************************************************

 Orbital symmetries:
       Occupied  (B2) (A1) (A1) (A1) (B2) (A1) (A1) (B2) (B2) (A1)
                 (B1) (A2)
       Virtual   (B1) (A1) (A1) (B2) (B1) (A1) (B2) (A1) (B2) (A1)
                 (A2) (A1) (B1) (B2) (A1) (B2) (A1) (B2) (A1) (B1)
                 (A1) (B2) (B2) (A2) (A1) (B1) (A1) (B2) (B2) (A1)
                 (A2) (B1) (A1) (A1) (A1) (B2) (A1) (A2) (B1) (B2)
                 (A1) (B2) (B2) (A1) (B1) (B2) (A1) (B2) (A1) (B2)
                 (A2) (B1) (A1) (B2) (A2) (B1) (A1) (A1) (B2) (A2)
                 (A1) (B1) (B2) (A1) (B1) (B2) (A1) (A2) (B2) (A1)
                 (B1) (A2) (B1) (A1) (B2) (A2) (B2) (A1) (A1) (B1)
                 (A1) (B2) (B2) (A1) (B2) (B2) (A1) (A1) (B1) (A2)
                 (B2) (B1) (A1) (A2) (B2) (A1) (B2) (A1) (B2) (A1)
                 (B2) (A1)
 The electronic state is 1-A1.
 Alpha  occ. eigenvalues --  -14.67913 -14.67910 -10.60980  -1.30566  -1.21698
 Alpha  occ. eigenvalues --   -0.97319  -0.89152  -0.86456  -0.79421  -0.73361
 Alpha  occ. eigenvalues --   -0.71311  -0.57766
 Alpha virt. eigenvalues --   -0.18898  -0.15054  -0.12595  -0.12278  -0.07770
 Alpha virt. eigenvalues --   -0.07693  -0.07549  -0.05116  -0.03852  -0.03160
 Alpha virt. eigenvalues --   -0.01572  -0.01397   0.00432   0.00679   0.00824
 Alpha virt. eigenvalues --    0.02244   0.02557   0.05830   0.07074   0.08685
 Alpha virt. eigenvalues --    0.10170   0.11412   0.12310   0.13581   0.13881
 Alpha virt. eigenvalues --    0.17105   0.20197   0.23261   0.23854   0.24576
 Alpha virt. eigenvalues --    0.25700   0.26398   0.28449   0.31099   0.32524
 Alpha virt. eigenvalues --    0.34199   0.34570   0.34935   0.35036   0.36818
 Alpha virt. eigenvalues --    0.38663   0.39118   0.40864   0.45323   0.46377
 Alpha virt. eigenvalues --    0.51198   0.53137   0.56497   0.62568   0.62727
 Alpha virt. eigenvalues --    0.62974   0.63779   0.64600   0.67382   0.67553
 Alpha virt. eigenvalues --    0.69960   0.77802   0.93504   0.95229   1.02348
 Alpha virt. eigenvalues --    1.06795   1.10229   1.12139   1.12555   1.20264
 Alpha virt. eigenvalues --    1.21452   1.33422   1.37925   1.47401   1.48298
 Alpha virt. eigenvalues --    1.57038   1.57972   1.60014   1.60723   1.66410
 Alpha virt. eigenvalues --    1.77431   1.79197   1.81928   1.84191   1.86681
 Alpha virt. eigenvalues --    1.89240   1.90000   1.92064   1.95243   1.99618
 Alpha virt. eigenvalues --    2.08599   2.10634   2.13336   2.22765   2.24564
 Alpha virt. eigenvalues --    2.28634   2.35954   2.41675   2.44301   2.48811
 Alpha virt. eigenvalues --    2.63908   2.76286   2.84313   2.85608   3.09055
 Alpha virt. eigenvalues --    3.11003   3.39959
          Condensed to atoms (all electrons):
              1          2          3          4          5          6
     1  C    4.924978   0.073165   0.351874  -0.201018  -0.182606   0.351874
     2  H    0.073165   1.406524  -0.109189  -0.030871   0.053473  -0.109189
     3  N    0.351874  -0.109189   5.828610   0.416257   0.404731  -0.060536
     4  H   -0.201018  -0.030871   0.416257   0.983567  -0.213443   0.025085
     5  H   -0.182606   0.053473   0.404731  -0.213443   1.037125  -0.026975
     6  N    0.351874  -0.109189  -0.060536   0.025085  -0.026975   5.828610
     7  H   -0.182606   0.053473  -0.026975  -0.004193   0.007648   0.404731
     8  H   -0.201018  -0.030871   0.025085  -0.001581  -0.004193   0.416257
              7          8
     1  C   -0.182606  -0.201018
     2  H    0.053473  -0.030871
     3  N   -0.026975   0.025085
     4  H   -0.004193  -0.001581
     5  H    0.007648  -0.004193
     6  N    0.404731   0.416257
     7  H    1.037125  -0.213443
     8  H   -0.213443   0.983567
 Mulliken atomic charges:
              1
     1  C    1.065357
     2  H   -0.306514
     3  N    0.170143
     4  H    0.026196
     5  H   -0.075760
     6  N    0.170143
     7  H   -0.075760
     8  H    0.026196
 Sum of Mulliken atomic charges =   1.00000
 Mulliken charges with hydrogens summed into heavy atoms:
              1
     1  C    0.758844
     3  N    0.120578
     6  N    0.120578
 Sum of Mulliken charges with hydrogens summed into heavy atoms =   1.00000
 APT atomic charges:
              1
     1  C    0.903688
     2  H    0.134546
     3  N   -0.614195
     4  H    0.315535
     5  H    0.279542
     6  N   -0.614195
     7  H    0.279542
     8  H    0.315535
 Sum of APT charges=   1.00000
 APT Atomic charges with hydrogens summed into heavy atoms:
              1
     1  C    1.038234
     2  H    0.000000
     3  N   -0.019117
     4  H    0.000000
     5  H    0.000000
     6  N   -0.019117
     7  H    0.000000
     8  H    0.000000
 Sum of APT charges=   1.00000
 Electronic spatial extent (au):  <R**2>=            159.1981
 Charge=              1.0000 electrons
 Dipole moment (field-independent basis, Debye):
    X=              0.0000    Y=              0.0000    Z=             -0.1768  Tot=              0.1768
 Quadrupole moment (field-independent basis, Debye-Ang):
   XX=            -19.3486   YY=             -4.5998   ZZ=            -10.4048
   XY=              0.0000   XZ=              0.0000   YZ=              0.0000
 Traceless Quadrupole moment (field-independent basis, Debye-Ang):
   XX=             -7.8975   YY=              6.8513   ZZ=              1.0462
   XY=              0.0000   XZ=              0.0000   YZ=              0.0000
 Octapole moment (field-independent basis, Debye-Ang**2):
  XXX=              0.0000  YYY=              0.0000  ZZZ=             -3.1569  XYY=              0.0000
  XXY=              0.0000  XXZ=             -0.0123  XZZ=              0.0000  YZZ=              0.0000
  YYZ=             -0.1042  XYZ=              0.0000
 Hexadecapole moment (field-independent basis, Debye-Ang**3):
 XXXX=            -18.3248 YYYY=            -72.9380 ZZZZ=            -24.0701 XXXY=              0.0000
 XXXZ=              0.0000 YYYX=              0.0000 YYYZ=              0.0000 ZZZX=              0.0000
 ZZZY=              0.0000 XXYY=            -28.1689 XXZZ=             -9.7931 YYZZ=            -18.3929
 XXYZ=              0.0000 YYXZ=              0.0000 ZZXY=              0.0000
 N-N= 7.942410646830D+01 E-N=-5.024421273017D+02  KE= 1.493143009438D+02
 Symmetry A1   KE= 8.852603675640D+01
 Symmetry A2   KE= 3.488583720651D+00
 Symmetry B1   KE= 2.734592053831D+00
 Symmetry B2   KE= 5.456508841288D+01
  Exact polarizability:  18.337   0.000  37.523   0.000   0.000  24.897
 Approx polarizability:  21.054   0.000  41.818   0.000   0.000  28.870
 No NMR shielding tensors so no spin-rotation constants.
 Leave Link  601 at Thu Feb 26 00:10:51 2015, MaxMem= 1073741824 cpu:       1.2
 (Enter /apps/gaussian/g09_c01/g09/l701.exe)
 Compute integral second derivatives.
 ... and contract with generalized density number  0.
 Leave Link  701 at Thu Feb 26 00:10:51 2015, MaxMem= 1073741824 cpu:       1.5
 (Enter /apps/gaussian/g09_c01/g09/l702.exe)
 L702 exits ... SP integral derivatives will be done elsewhere.
 Leave Link  702 at Thu Feb 26 00:10:51 2015, MaxMem= 1073741824 cpu:       0.1
 (Enter /apps/gaussian/g09_c01/g09/l703.exe)
 Compute integral second derivatives, UseDBF=F ICtDFT=           0.
 Integral derivatives from FoFDir, PRISM(SPDF).
 Calling FoFJK, ICntrl=    100127 FMM=F ISym2X=1 I1Cent= 0 IOpClX= 0 NMat=1 NMatS=1 NMatT=0.
 FoFJK:  IHMeth= 1 ICntrl=100127 DoSepK=T KAlg= 1 I1Cent= 0 FoldK=F
 FoFCou: FMM=F IPFlag=           0 FMFlag=      100000 FMFlg1=         800
         NFxFlg=           0 DoJE=F BraDBF=F KetDBF=F FulRan=T
         Omega=  0.000000  0.000000  1.000000  0.000000  0.000000 ICntrl=  100527 IOpCl=  0
         NMat0=    1 NMatS0=    1 NMatT0=    0 NMatD0=    1 NMtDS0=    0 NMtDT0=    0
         I1Cent=           0 NGrid=           0.
 Petite list used in FoFCou.
 Leave Link  703 at Thu Feb 26 00:10:58 2015, MaxMem= 1073741824 cpu:      56.9
 (Enter /apps/gaussian/g09_c01/g09/l716.exe)
 Dipole        =-4.87651490D-17 1.41067713D-14-6.95660135D-02
 Polarizability= 1.83370767D+01-4.52459512D-12 3.75228324D+01
                -7.38323222D-12-1.38632161D-12 2.48969515D+01
 HyperPolar    = 1.08828068D-10-6.97317384D-10 2.73411424D-10
                -1.03432387D-10-1.41281289D-01 6.83525354D-12
                 3.43144072D+01 1.82631368D-10 1.29935490D-10
                -5.53814709D+00
 ***** Axes restored to original set *****
 -------------------------------------------------------------------
 Center     Atomic                   Forces (Hartrees/Bohr)
 Number     Number              X              Y              Z
 -------------------------------------------------------------------
      1        6           0.000000000   -0.005794687    0.000000000
      2        1           0.000000000    0.002955969    0.000000000
      3        7          -0.003211095    0.000278355    0.000000000
      4        1          -0.001279845    0.000243921    0.000000000
      5        1          -0.001035373    0.000897083    0.000000000
      6        7           0.003211095    0.000278355    0.000000000
      7        1           0.001035373    0.000897083    0.000000000
      8        1           0.001279845    0.000243921    0.000000000
 -------------------------------------------------------------------
 Cartesian Forces:  Max     0.005794687 RMS     0.001710773
 Force constants in Cartesian coordinates: 
                1             2             3             4             5 
      1  0.935217D+00
      2  0.000000D+00  0.854374D+00
      3  0.000000D+00  0.000000D+00  0.174530D+00
      4 -0.626165D-01  0.000000D+00  0.000000D+00  0.691300D-01
      5  0.000000D+00 -0.361487D+00  0.000000D+00  0.000000D+00  0.374864D+00
      6  0.000000D+00  0.000000D+00 -0.550611D-01  0.000000D+00  0.000000D+00
      7 -0.414406D+00  0.162738D+00  0.000000D+00 -0.380011D-03  0.382227D-03
      8  0.143187D+00 -0.254853D+00  0.000000D+00  0.353152D-01 -0.889929D-02
      9  0.000000D+00  0.000000D+00 -0.554486D-01  0.000000D+00  0.000000D+00
     10 -0.256700D-01 -0.174224D-01  0.000000D+00  0.103185D-02  0.318427D-03
     11  0.161465D-01  0.163586D-01  0.000000D+00  0.114388D-02  0.696834D-03
     12  0.000000D+00  0.000000D+00 -0.568998D-02  0.000000D+00  0.000000D+00
     13  0.377579D-02  0.358298D-01  0.000000D+00 -0.390858D-02  0.103985D-02
     14  0.742111D-02 -0.794888D-02  0.000000D+00  0.979861D-03  0.151404D-02
     15  0.000000D+00  0.000000D+00  0.140439D-02  0.000000D+00  0.000000D+00
     16 -0.414406D+00 -0.162738D+00  0.000000D+00 -0.380012D-03 -0.382226D-03
     17 -0.143187D+00 -0.254853D+00  0.000000D+00 -0.353152D-01 -0.889929D-02
     18  0.000000D+00  0.000000D+00 -0.554486D-01  0.000000D+00  0.000000D+00
     19  0.377579D-02 -0.358298D-01  0.000000D+00 -0.390858D-02 -0.103985D-02
     20 -0.742111D-02 -0.794889D-02  0.000000D+00 -0.979861D-03  0.151404D-02
     21  0.000000D+00  0.000000D+00  0.140439D-02  0.000000D+00  0.000000D+00
     22 -0.256700D-01  0.174224D-01  0.000000D+00  0.103185D-02 -0.318427D-03
     23 -0.161465D-01  0.163586D-01  0.000000D+00 -0.114388D-02  0.696833D-03
     24  0.000000D+00  0.000000D+00 -0.568998D-02  0.000000D+00  0.000000D+00
                6             7             8             9            10 
      6  0.309008D-01
      7  0.000000D+00  0.911981D+00
      8  0.000000D+00 -0.216273D-01  0.864084D+00
      9  0.824487D-02  0.000000D+00  0.000000D+00  0.618491D-01
     10  0.000000D+00 -0.336707D+00 -0.174497D+00  0.000000D+00  0.348850D+00
     11  0.000000D+00 -0.178881D+00 -0.193203D+00  0.000000D+00  0.181759D+00
     12 -0.412445D-02  0.000000D+00  0.000000D+00 -0.118987D-01  0.000000D+00
     13  0.000000D+00 -0.805552D-01  0.310750D-01  0.000000D+00  0.111869D-01
     14  0.000000D+00  0.295036D-01 -0.441797D+00  0.000000D+00  0.529277D-02
     15  0.795975D-02  0.000000D+00  0.000000D+00 -0.183709D-01  0.000000D+00
     16  0.000000D+00 -0.839599D-01 -0.924883D-02  0.000000D+00  0.213411D-02
     17  0.000000D+00  0.924883D-02  0.360432D-01  0.000000D+00  0.520855D-02
     18  0.824487D-02  0.000000D+00  0.000000D+00  0.133391D-01  0.000000D+00
     19  0.000000D+00  0.189341D-02  0.100426D-02  0.000000D+00 -0.120187D-03
     20  0.000000D+00  0.537054D-02  0.192134D-03  0.000000D+00 -0.254771D-03
     21  0.795975D-02  0.000000D+00  0.000000D+00 -0.386108D-02  0.000000D+00
     22  0.000000D+00  0.213411D-02 -0.520855D-02  0.000000D+00 -0.705230D-03
     23  0.000000D+00 -0.673458D-02 -0.156677D-02  0.000000D+00 -0.404209D-03
     24 -0.412445D-02  0.000000D+00  0.000000D+00  0.614630D-02  0.000000D+00
               11            12            13            14            15 
     11  0.185129D+00
     12  0.000000D+00  0.137107D-01
     13 -0.275569D-01  0.000000D+00  0.693501D-01
     14 -0.777659D-02  0.000000D+00 -0.386074D-01  0.455585D+00
     15  0.000000D+00 -0.537037D-03  0.000000D+00  0.000000D+00  0.138234D-01
     16  0.673458D-02  0.000000D+00  0.189341D-02 -0.537054D-02  0.000000D+00
     17 -0.156677D-02  0.000000D+00 -0.100426D-02  0.192134D-03  0.000000D+00
     18  0.000000D+00  0.614630D-02  0.000000D+00  0.000000D+00 -0.386108D-02
     19  0.250172D-03  0.000000D+00 -0.162226D-02  0.525852D-03  0.000000D+00
     20 -0.502918D-03  0.000000D+00 -0.525852D-03  0.734031D-03  0.000000D+00
     21  0.000000D+00 -0.591256D-03  0.000000D+00  0.000000D+00  0.172777D-03
     22  0.404209D-03  0.000000D+00 -0.120187D-03  0.254771D-03  0.000000D+00
     23  0.864439D-03  0.000000D+00 -0.250172D-03 -0.502918D-03  0.000000D+00
     24  0.000000D+00  0.298449D-02  0.000000D+00  0.000000D+00 -0.591256D-03
               16            17            18            19            20 
     16  0.911981D+00
     17  0.216273D-01  0.864084D+00
     18  0.000000D+00  0.000000D+00  0.618491D-01
     19 -0.805552D-01 -0.310750D-01  0.000000D+00  0.693501D-01
     20 -0.295036D-01 -0.441797D+00  0.000000D+00  0.386074D-01  0.455585D+00
     21  0.000000D+00  0.000000D+00 -0.183709D-01  0.000000D+00  0.000000D+00
     22 -0.336707D+00  0.174497D+00  0.000000D+00  0.111869D-01 -0.529277D-02
     23  0.178881D+00 -0.193203D+00  0.000000D+00  0.275569D-01 -0.777659D-02
     24  0.000000D+00  0.000000D+00 -0.118987D-01  0.000000D+00  0.000000D+00
               21            22            23            24 
     21  0.138234D-01
     22  0.000000D+00  0.348850D+00
     23  0.000000D+00 -0.181759D+00  0.185129D+00
     24 -0.537037D-03  0.000000D+00  0.000000D+00  0.137107D-01
 Force constants in internal coordinates: 
                1             2             3             4             5 
      1  0.374864D+00
      2  0.461190D-02  0.612946D+00
      3  0.461190D-02  0.604317D-01  0.612946D+00
      4  0.643829D-03  0.471047D-02 -0.597803D-02  0.466324D+00
      5 -0.139817D-02  0.777288D-02 -0.379389D-02 -0.827365D-03  0.459396D+00
      6 -0.139817D-02 -0.379389D-02  0.777288D-02  0.479620D-03  0.852409D-03
      7  0.643829D-03 -0.597803D-02  0.471047D-02  0.384184D-03  0.479620D-03
      8  0.323401D-02  0.872366D-02 -0.324476D-01 -0.232937D-02  0.352188D-02
      9  0.323402D-02 -0.324476D-01  0.872367D-02  0.720657D-03  0.688812D-03
     10 -0.646803D-02  0.237240D-01  0.237240D-01  0.160871D-02 -0.421069D-02
     11 -0.129255D-02  0.162843D-01  0.354365D-02  0.173986D-02 -0.709745D-02
     12  0.178948D-02  0.658130D-02 -0.734607D-03 -0.602865D-02  0.207953D-02
     13 -0.496934D-03 -0.228656D-01 -0.280904D-02  0.428880D-02  0.501792D-02
     14  0.178948D-02 -0.734607D-03  0.658130D-02 -0.169787D-03  0.938840D-03
     15 -0.129255D-02  0.354365D-02  0.162843D-01  0.178073D-03 -0.714336D-03
     16 -0.496934D-03 -0.280904D-02 -0.228656D-01 -0.828600D-05 -0.224504D-03
     17  0.000000D+00  0.000000D+00  0.000000D+00  0.000000D+00  0.000000D+00
     18  0.000000D+00  0.000000D+00  0.000000D+00  0.000000D+00  0.000000D+00
     19  0.000000D+00  0.000000D+00  0.000000D+00  0.000000D+00  0.000000D+00
     20  0.000000D+00  0.000000D+00  0.000000D+00  0.000000D+00  0.000000D+00
     21  0.000000D+00  0.000000D+00  0.000000D+00  0.000000D+00  0.000000D+00
     22  0.000000D+00  0.000000D+00  0.000000D+00  0.000000D+00  0.000000D+00
     23  0.000000D+00  0.000000D+00  0.000000D+00  0.000000D+00  0.000000D+00
     24  0.000000D+00  0.000000D+00  0.000000D+00  0.000000D+00  0.000000D+00
                6             7             8             9            10 
      6  0.459396D+00
      7 -0.827365D-03  0.466324D+00
      8  0.688813D-03  0.720658D-03  0.111693D+00
      9  0.352188D-02 -0.232937D-02 -0.370793D-01  0.111693D+00
     10 -0.421069D-02  0.160871D-02 -0.746135D-01 -0.746135D-01  0.149227D+00
     11 -0.714336D-03  0.178073D-03 -0.806091D-02 -0.415399D-02  0.122149D-01
     12  0.938840D-03 -0.169787D-03  0.936977D-02 -0.460532D-04 -0.932371D-02
     13 -0.224504D-03 -0.828595D-05 -0.130886D-02  0.420004D-02 -0.289118D-02
     14  0.207953D-02 -0.602865D-02 -0.460527D-04  0.936977D-02 -0.932371D-02
     15 -0.709745D-02  0.173986D-02 -0.415399D-02 -0.806091D-02  0.122149D-01
     16  0.501792D-02  0.428880D-02  0.420004D-02 -0.130886D-02 -0.289118D-02
     17  0.000000D+00  0.000000D+00  0.000000D+00  0.000000D+00  0.000000D+00
     18  0.000000D+00  0.000000D+00  0.000000D+00  0.000000D+00  0.000000D+00
     19  0.000000D+00  0.000000D+00  0.000000D+00  0.000000D+00  0.000000D+00
     20  0.000000D+00  0.000000D+00  0.000000D+00  0.000000D+00  0.000000D+00
     21  0.000000D+00  0.000000D+00  0.000000D+00  0.000000D+00  0.000000D+00
     22  0.000000D+00  0.000000D+00  0.000000D+00  0.000000D+00  0.000000D+00
     23  0.000000D+00  0.000000D+00  0.000000D+00  0.000000D+00  0.000000D+00
     24  0.000000D+00  0.000000D+00  0.000000D+00  0.000000D+00  0.000000D+00
               11            12            13            14            15 
     11  0.870536D-01
     12 -0.466103D-01  0.847425D-01
     13 -0.404433D-01 -0.381322D-01  0.785754D-01
     14 -0.157750D-02  0.244958D-02 -0.872081D-03  0.847425D-01
     15  0.205303D-02 -0.157750D-02 -0.475533D-03 -0.466103D-01  0.870536D-01
     16 -0.475533D-03 -0.872082D-03  0.134761D-02 -0.381322D-01 -0.404433D-01
     17  0.000000D+00  0.000000D+00  0.000000D+00  0.000000D+00  0.000000D+00
     18  0.000000D+00  0.000000D+00  0.000000D+00  0.000000D+00  0.000000D+00
     19  0.000000D+00  0.000000D+00  0.000000D+00  0.000000D+00  0.000000D+00
     20  0.000000D+00  0.000000D+00  0.000000D+00  0.000000D+00  0.000000D+00
     21  0.000000D+00  0.000000D+00  0.000000D+00  0.000000D+00  0.000000D+00
     22  0.000000D+00  0.000000D+00  0.000000D+00  0.000000D+00  0.000000D+00
     23  0.000000D+00  0.000000D+00  0.000000D+00  0.000000D+00  0.000000D+00
     24  0.000000D+00  0.000000D+00  0.000000D+00  0.000000D+00  0.000000D+00
               16            17            18            19            20 
     16  0.785754D-01
     17  0.000000D+00  0.110289D-01
     18  0.000000D+00  0.455820D-02  0.144711D-01
     19  0.000000D+00  0.410861D-02 -0.628205D-02  0.168530D-01
     20  0.000000D+00 -0.236209D-02  0.363090D-02  0.646232D-02  0.124553D-01
     21  0.000000D+00 -0.435800D-02 -0.603601D-02  0.648225D-02  0.480424D-02
     22  0.000000D+00 -0.405383D-02 -0.435800D-02  0.286645D-02  0.256229D-02
     23  0.000000D+00  0.256229D-02  0.480424D-02 -0.626212D-02 -0.402018D-02
     24  0.000000D+00  0.286645D-02  0.648225D-02 -0.987792D-02 -0.626212D-02
               21            22            23            24 
     21  0.144711D-01
     22  0.455820D-02  0.110289D-01
     23  0.363090D-02 -0.236209D-02  0.124553D-01
     24 -0.628205D-02  0.410861D-02  0.646232D-02  0.168530D-01
 Leave Link  716 at Thu Feb 26 00:10:58 2015, MaxMem= 1073741824 cpu:       0.1
 (Enter /apps/gaussian/g09_c01/g09/l103.exe)

 GradGradGradGradGradGradGradGradGradGradGradGradGradGradGradGradGradGrad
 Berny optimization.
 Red2BG is reusing G-inverse.
 Internal  Forces:  Max     0.005562353 RMS     0.001887732
 Search for a local minimum.
 Step number   1 out of a maximum of   34
 All quantities printed in internal units (Hartrees-Bohrs-Radians)
 RMS Force = .18877D-02 SwitMx=.10000D-02 MixMth= 1
 Mixed Optimization -- RFO/linear search
 Second derivative matrix not updated -- analytic derivatives used.
 ITU=  0
     Eigenvalues ---    0.01390   0.01500   0.01692   0.02101   0.04278
     Eigenvalues ---    0.11270   0.11778   0.12518   0.12884   0.14933
     Eigenvalues ---    0.22626   0.37528   0.45681   0.46078   0.46584
     Eigenvalues ---    0.46697   0.56043   0.67935
 RFO step:  Lambda=-1.69409357D-04 EMin= 1.38962214D-02
 Linear search not attempted -- first point.
 Iteration  1 RMS(Cart)=  0.01025032 RMS(Int)=  0.00002806
 Iteration  2 RMS(Cart)=  0.00002776 RMS(Int)=  0.00000000
 Iteration  3 RMS(Cart)=  0.00000000 RMS(Int)=  0.00000000
 ClnCor:  largest displacement from symmetrization is 9.42D-11 for atom     7.
 Variable       Old X    -DE/DX   Delta X   Delta X   Delta X     New X
                                 (Linear)    (Quad)   (Total)
    R1        2.05337   0.00296   0.00000   0.00791   0.00791   2.06128
    R2        2.48365  -0.00556   0.00000  -0.00746  -0.00746   2.47619
    R3        2.48365  -0.00556   0.00000  -0.00746  -0.00746   2.47619
    R4        1.91586  -0.00095   0.00000  -0.00216  -0.00216   1.91370
    R5        1.91959  -0.00100   0.00000  -0.00228  -0.00228   1.91731
    R6        1.91959  -0.00100   0.00000  -0.00228  -0.00228   1.91731
    R7        1.91586  -0.00095   0.00000  -0.00216  -0.00216   1.91370
    A1        2.04681   0.00108   0.00000   0.00396   0.00396   2.05077
    A2        2.04681   0.00108   0.00000   0.00396   0.00396   2.05077
    A3        2.18957  -0.00216   0.00000  -0.00791  -0.00791   2.18165
    A4        2.09627  -0.00054   0.00000  -0.00228  -0.00228   2.09399
    A5        2.15059  -0.00063   0.00000  -0.00582  -0.00582   2.14477
    A6        2.03632   0.00117   0.00000   0.00810   0.00810   2.04442
    A7        2.15059  -0.00063   0.00000  -0.00582  -0.00582   2.14477
    A8        2.09627  -0.00054   0.00000  -0.00228  -0.00228   2.09399
    A9        2.03632   0.00117   0.00000   0.00810   0.00810   2.04442
    D1        0.00000   0.00000   0.00000   0.00000   0.00000   0.00000
    D2        3.14159   0.00000   0.00000   0.00000   0.00000   3.14159
    D3        3.14159   0.00000   0.00000   0.00000   0.00000   3.14159
    D4        0.00000   0.00000   0.00000   0.00000   0.00000   0.00000
    D5        3.14159   0.00000   0.00000   0.00000   0.00000   3.14159
    D6        0.00000   0.00000   0.00000   0.00000   0.00000   0.00000
    D7        0.00000   0.00000   0.00000   0.00000   0.00000   0.00000
    D8        3.14159   0.00000   0.00000   0.00000   0.00000   3.14159
         Item               Value     Threshold  Converged?
 Maximum Force            0.005562     0.000002     NO 
 RMS     Force            0.001888     0.000001     NO 
 Maximum Displacement     0.030031     0.000006     NO 
 RMS     Displacement     0.010246     0.000004     NO 
 Predicted change in Energy=-8.474680D-05
 GradGradGradGradGradGradGradGradGradGradGradGradGradGradGradGradGradGrad

 Leave Link  103 at Thu Feb 26 00:10:58 2015, MaxMem= 1073741824 cpu:       0.0
 (Enter /apps/gaussian/g09_c01/g09/l202.exe)
                          Input orientation:                          
 ---------------------------------------------------------------------
 Center     Atomic      Atomic             Coordinates (Angstroms)
 Number     Number       Type             X           Y           Z
 ---------------------------------------------------------------------
      1          6           0        0.000000    0.429300    0.000000
      2          1           0        0.000000    1.520081    0.000000
      3          7           0        1.162287   -0.175755    0.000000
      4          1           0        2.016160    0.368699    0.000000
      5          1           0        1.257522   -1.185871    0.000000
      6          7           0       -1.162287   -0.175755    0.000000
      7          1           0       -1.257522   -1.185871    0.000000
      8          1           0       -2.016160    0.368699    0.000000
 ---------------------------------------------------------------------
                    Distance matrix (angstroms):
                    1          2          3          4          5
     1  C    0.000000
     2  H    1.090781   0.000000
     3  N    1.310344   2.055911   0.000000
     4  H    2.017071   2.321763   1.012684   0.000000
     5  H    2.046983   2.983880   1.014595   1.729804   0.000000
     6  N    1.310344   2.055911   2.324574   3.224741   2.622177
     7  H    2.046983   2.983880   2.622177   3.624043   2.515044
     8  H    2.017071   2.321763   3.224741   4.032320   3.624043
                    6          7          8
     6  N    0.000000
     7  H    1.014595   0.000000
     8  H    1.012684   1.729804   0.000000
 Stoichiometry    CH5N2(1+)
 Framework group  C2V[C2(CH),SGV(H4N2)]
 Deg. of freedom     7
 Full point group                 C2V     NOp   4
 RotChk:  IX=0 Diff= 6.08D-16
 Largest Abelian subgroup         C2V     NOp   4
 Largest concise Abelian subgroup C2      NOp   2
                         Standard orientation:                         
 ---------------------------------------------------------------------
 Center     Atomic      Atomic             Coordinates (Angstroms)
 Number     Number       Type             X           Y           Z
 ---------------------------------------------------------------------
      1          6           0        0.000000    0.000000    0.429261
      2          1           0        0.000000    0.000000    1.520042
      3          7           0        0.000000    1.162287   -0.175794
      4          1           0        0.000000    2.016160    0.368661
      5          1           0        0.000000    1.257522   -1.185910
      6          7           0        0.000000   -1.162287   -0.175794
      7          1           0        0.000000   -1.257522   -1.185910
      8          1           0        0.000000   -2.016160    0.368661
 ---------------------------------------------------------------------
 Rotational constants (GHZ):     59.3605499     10.2688608      8.7544217
 Leave Link  202 at Thu Feb 26 00:10:58 2015, MaxMem= 1073741824 cpu:       0.0
 (Enter /apps/gaussian/g09_c01/g09/l301.exe)
 Standard basis: Aug-CC-pVDZ (5D, 7F)
 Ernie: Thresh=  0.10000D-02 Tol=  0.10000D-05 Strict=F.
 Ernie:  6 primitive shells out of 110 were deleted.
 There are    46 symmetry adapted basis functions of A1  symmetry.
 There are    13 symmetry adapted basis functions of A2  symmetry.
 There are    18 symmetry adapted basis functions of B1  symmetry.
 There are    37 symmetry adapted basis functions of B2  symmetry.
 Integral buffers will be    131072 words long.
 Raffenetti 2 integral format.
 Two-electron integral symmetry is turned on.
   114 basis functions,   184 primitive gaussians,   120 cartesian basis functions
    12 alpha electrons       12 beta electrons
       nuclear repulsion energy        79.6386858682 Hartrees.
 IExCor=20419 DFT=T Ex+Corr=CAM-B3LYP ExCW=0 ScaHFX=  1.000000
 ScaDFX=  1.000000  1.000000  1.000000  0.810000 ScalE2=  1.000000  1.000000
 IRadAn=      5 IRanWt=     -1 IRanGd=            0 ICorTp=0
  HFx wShort=  0.000000 wLong=  0.330000 cFull=  0.190000 cShort=  0.000000 cLong=  0.460000
  DFx wShort=  0.000000 wLong=  0.330000 cFull=  0.190000 cShort=  0.000000 cLong=  0.460000
 NAtoms=    8 NActive=    8 NUniq=    5 SFac= 2.56D+00 NAtFMM=   60 NAOKFM=F Big=F
 Leave Link  301 at Thu Feb 26 00:10:58 2015, MaxMem= 1073741824 cpu:       0.2
 (Enter /apps/gaussian/g09_c01/g09/l302.exe)
 NPDir=0 NMtPBC=     1 NCelOv=     1 NCel=       1 NClECP=     1 NCelD=      1
         NCelK=      1 NCelE2=     1 NClLst=     1 CellRange=     0.0.
 One-electron integrals computed using PRISM.
 One-electron integral symmetry used in STVInt
 NBasis=   114 RedAO= T  NBF=    46    13    18    37
 NBsUse=   114 1.00D-06 NBFU=    46    13    18    37
 Precomputing XC quadrature grid using
 IXCGrd= 2 IRadAn=           5 IRanWt=          -1 IRanGd=           0 AccXCQ= 0.00D+00.
 NRdTot=     686 NPtTot=      183350 NUsed=      188269 NTot=      188301
 NSgBfM=   120   120   120   120   120 NAtAll=     8     8.
 Leave Link  302 at Thu Feb 26 00:10:59 2015, MaxMem= 1073741824 cpu:       1.2
 (Enter /apps/gaussian/g09_c01/g09/l303.exe)
 DipDrv:  MaxL=1.
 Leave Link  303 at Thu Feb 26 00:10:59 2015, MaxMem= 1073741824 cpu:       0.2
 (Enter /apps/gaussian/g09_c01/g09/l401.exe)
 Initial guess read from the read-write file.
 B after Tr=     0.000000    0.000000    0.000000
         Rot=    1.000000    0.000000    0.000000    0.000000 Ang=   0.00 deg.
 Guess basis will be translated and rotated to current coordinates.
 Initial guess orbital symmetries:
       Occupied  (B2) (A1) (A1) (A1) (B2) (A1) (A1) (B2) (B2) (A1)
                 (B1) (A2)
       Virtual   (B1) (A1) (A1) (B2) (B1) (A1) (B2) (A1) (B2) (A1)
                 (A2) (A1) (B1) (B2) (A1) (B2) (A1) (B2) (A1) (B1)
                 (A1) (B2) (B2) (A2) (A1) (B1) (A1) (B2) (B2) (A1)
                 (A2) (B1) (A1) (A1) (A1) (B2) (A1) (A2) (B1) (B2)
                 (A1) (B2) (B2) (A1) (B1) (B2) (A1) (B2) (A1) (B2)
                 (A2) (B1) (A1) (B2) (A2) (B1) (A1) (A1) (B2) (A2)
                 (A1) (B1) (B2) (A1) (B1) (B2) (A1) (A2) (B2) (A1)
                 (B1) (A2) (B1) (A1) (B2) (A2) (B2) (A1) (A1) (B1)
                 (A1) (B2) (B2) (A1) (B2) (B2) (A1) (A1) (B1) (A2)
                 (B2) (B1) (A1) (A2) (B2) (A1) (B2) (A1) (B2) (A1)
                 (B2) (A1)
 The electronic state of the initial guess is 1-A1.
 Generating alternative initial guess.
 Harris functional with IExCor=20419 diagonalized for initial guess.
 ExpMin= 2.97D-02 ExpMax= 9.05D+03 ExpMxC= 3.09D+02 IAcc=3 IRadAn=         5 AccDes= 0.00D+00
 HarFok:  IExCor=20419 AccDes= 0.00D+00 IRadAn=         5 IDoV= 1
 ScaDFX=  1.000000  1.000000  1.000000  1.000000
 FoFCou: FMM=F IPFlag=           0 FMFlag=      100000 FMFlg1=           0
         NFxFlg=           0 DoJE=T BraDBF=F KetDBF=T FulRan=T
         Omega=  0.000000  0.000000  1.000000  0.000000  0.000000 ICntrl=     500 IOpCl=  0
         NMat0=    1 NMatS0=    1 NMatT0=    0 NMatD0=    1 NMtDS0=    0 NMtDT0=    0
         I1Cent=           4 NGrid=           0.
 Petite list used in FoFCou.
 Harris En= -144.646123974982    
 Leave Link  401 at Thu Feb 26 00:10:59 2015, MaxMem= 1073741824 cpu:       2.4
 (Enter /apps/gaussian/g09_c01/g09/l502.exe)
 Closed shell SCF:
 Requested convergence on RMS density matrix=1.00D-08 within 128 cycles.
 Requested convergence on MAX density matrix=1.00D-06.
 Requested convergence on             energy=1.00D-06.
 No special actions if energy rises.
 Using DIIS extrapolation, IDIIS=  1040.
 Integral symmetry usage will be decided dynamically.
       188184 words used for storage of precomputed grid.
 IEnd=      251662 IEndB=      251662 NGot=  1073741824 MDV=  1073521323
 LenX=  1073521323 LenY=  1073506482
 Fock matrices will be formed incrementally for  20 cycles.

 Cycle   1  Pass 1  IDiag  1:
 FoFJK:  IHMeth= 1 ICntrl=     0 DoSepK=T KAlg= 1 I1Cent= 0 FoldK=F
 FoFCou: FMM=F IPFlag=           0 FMFlag=      100000 FMFlg1=           0
         NFxFlg=           0 DoJE=T BraDBF=F KetDBF=F FulRan=T
         Omega=  0.000000  0.000000  1.000000  0.000000  0.000000 ICntrl=     500 IOpCl=  0
         NMat0=    1 NMatS0=    1 NMatT0=    0 NMatD0=    1 NMtDS0=    0 NMtDT0=    0
         I1Cent=           0 NGrid=           0.
 Petite list used in FoFCou.
 E= -150.331340818099    
 DIIS: error= 5.56D-04 at cycle   1 NSaved=   1.
 NSaved= 1 IEnMin= 1 EnMin= -150.331340818099     IErMin= 1 ErrMin= 5.56D-04
 ErrMax= 5.56D-04 EMaxC= 1.00D-01 BMatC= 6.17D-05 BMatP= 6.17D-05
 IDIUse=3 WtCom= 9.94D-01 WtEn= 5.56D-03
 Coeff-Com:  0.100D+01
 Coeff-En:   0.100D+01
 Coeff:      0.100D+01
 Gap=     0.390 Goal=   None    Shift=    0.000
 RMSDP=1.58D-04 MaxDP=4.28D-03              OVMax= 1.91D-03

 Cycle   2  Pass 1  IDiag  1:
 RMSU=  1.11D-04    CP:  1.00D+00
 FoFJK:  IHMeth= 1 ICntrl=     0 DoSepK=T KAlg= 1 I1Cent= 0 FoldK=F
 E= -150.331396601264     Delta-E=       -0.000055783166 Rises=F Damp=F
 DIIS: error= 1.01D-04 at cycle   2 NSaved=   2.
 NSaved= 2 IEnMin= 2 EnMin= -150.331396601264     IErMin= 2 ErrMin= 1.01D-04
 ErrMax= 1.01D-04 EMaxC= 1.00D-01 BMatC= 1.64D-06 BMatP= 6.17D-05
 IDIUse=3 WtCom= 9.99D-01 WtEn= 1.01D-03
 Coeff-Com: -0.171D-01 0.102D+01
 Coeff-En:   0.000D+00 0.100D+01
 Coeff:     -0.171D-01 0.102D+01
 Gap=     0.390 Goal=   None    Shift=    0.000
 RMSDP=2.10D-05 MaxDP=4.80D-04 DE=-5.58D-05 OVMax= 5.47D-04

 Cycle   3  Pass 1  IDiag  1:
 RMSU=  1.33D-05    CP:  9.99D-01  1.06D+00
 FoFJK:  IHMeth= 1 ICntrl=     0 DoSepK=T KAlg= 1 I1Cent= 0 FoldK=F
 E= -150.331397861877     Delta-E=       -0.000001260613 Rises=F Damp=F
 DIIS: error= 8.28D-05 at cycle   3 NSaved=   3.
 NSaved= 3 IEnMin= 3 EnMin= -150.331397861877     IErMin= 3 ErrMin= 8.28D-05
 ErrMax= 8.28D-05 EMaxC= 1.00D-01 BMatC= 6.64D-07 BMatP= 1.64D-06
 IDIUse=1 WtCom= 1.00D+00 WtEn= 0.00D+00
 Coeff-Com: -0.318D-01 0.391D+00 0.641D+00
 Coeff:     -0.318D-01 0.391D+00 0.641D+00
 Gap=     0.390 Goal=   None    Shift=    0.000
 RMSDP=6.96D-06 MaxDP=1.76D-04 DE=-1.26D-06 OVMax= 2.28D-04

 Cycle   4  Pass 1  IDiag  1:
 RMSU=  3.58D-06    CP:  9.99D-01  1.06D+00  7.71D-01
 FoFJK:  IHMeth= 1 ICntrl=     0 DoSepK=T KAlg= 1 I1Cent= 0 FoldK=F
 E= -150.331398497876     Delta-E=       -0.000000635999 Rises=F Damp=F
 DIIS: error= 8.72D-06 at cycle   4 NSaved=   4.
 NSaved= 4 IEnMin= 4 EnMin= -150.331398497876     IErMin= 4 ErrMin= 8.72D-06
 ErrMax= 8.72D-06 EMaxC= 1.00D-01 BMatC= 9.98D-09 BMatP= 6.64D-07
 IDIUse=1 WtCom= 1.00D+00 WtEn= 0.00D+00
 Coeff-Com: -0.549D-03-0.378D-01 0.615D-01 0.977D+00
 Coeff:     -0.549D-03-0.378D-01 0.615D-01 0.977D+00
 Gap=     0.390 Goal=   None    Shift=    0.000
 RMSDP=1.09D-06 MaxDP=1.96D-05 DE=-6.36D-07 OVMax= 3.37D-05

 Cycle   5  Pass 1  IDiag  1:
 RMSU=  4.79D-07    CP:  9.99D-01  1.07D+00  8.16D-01  1.01D+00
 FoFJK:  IHMeth= 1 ICntrl=     0 DoSepK=T KAlg= 1 I1Cent= 0 FoldK=F
 E= -150.331398509206     Delta-E=       -0.000000011331 Rises=F Damp=F
 DIIS: error= 1.28D-06 at cycle   5 NSaved=   5.
 NSaved= 5 IEnMin= 5 EnMin= -150.331398509206     IErMin= 5 ErrMin= 1.28D-06
 ErrMax= 1.28D-06 EMaxC= 1.00D-01 BMatC= 2.47D-10 BMatP= 9.98D-09
 IDIUse=1 WtCom= 1.00D+00 WtEn= 0.00D+00
 Coeff-Com:  0.224D-03-0.130D-01 0.567D-02 0.216D+00 0.791D+00
 Coeff:      0.224D-03-0.130D-01 0.567D-02 0.216D+00 0.791D+00
 Gap=     0.390 Goal=   None    Shift=    0.000
 RMSDP=1.97D-07 MaxDP=4.84D-06 DE=-1.13D-08 OVMax= 7.63D-06

 Cycle   6  Pass 1  IDiag  1:
 RMSU=  1.16D-07    CP:  9.99D-01  1.07D+00  8.17D-01  1.02D+00  1.07D+00
 FoFJK:  IHMeth= 1 ICntrl=     0 DoSepK=T KAlg= 1 I1Cent= 0 FoldK=F
 E= -150.331398509367     Delta-E=       -0.000000000161 Rises=F Damp=F
 DIIS: error= 9.05D-07 at cycle   6 NSaved=   6.
 NSaved= 6 IEnMin= 6 EnMin= -150.331398509367     IErMin= 6 ErrMin= 9.05D-07
 ErrMax= 9.05D-07 EMaxC= 1.00D-01 BMatC= 9.17D-11 BMatP= 2.47D-10
 IDIUse=1 WtCom= 1.00D+00 WtEn= 0.00D+00
 Coeff-Com:  0.198D-03-0.302D-02-0.439D-02 0.734D-02 0.383D+00 0.617D+00
 Coeff:      0.198D-03-0.302D-02-0.439D-02 0.734D-02 0.383D+00 0.617D+00
 Gap=     0.390 Goal=   None    Shift=    0.000
 RMSDP=6.36D-08 MaxDP=1.74D-06 DE=-1.61D-10 OVMax= 2.98D-06

 Cycle   7  Pass 1  IDiag  1:
 RMSU=  2.74D-08    CP:  9.99D-01  1.06D+00  8.18D-01  1.03D+00  1.10D+00
                    CP:  7.81D-01
 FoFJK:  IHMeth= 1 ICntrl=     0 DoSepK=T KAlg= 1 I1Cent= 0 FoldK=F
 E= -150.331398509440     Delta-E=       -0.000000000073 Rises=F Damp=F
 DIIS: error= 9.30D-08 at cycle   7 NSaved=   7.
 NSaved= 7 IEnMin= 7 EnMin= -150.331398509440     IErMin= 7 ErrMin= 9.30D-08
 ErrMax= 9.30D-08 EMaxC= 1.00D-01 BMatC= 5.34D-13 BMatP= 9.17D-11
 IDIUse=1 WtCom= 1.00D+00 WtEn= 0.00D+00
 Coeff-Com:  0.101D-04 0.194D-03-0.839D-03-0.785D-02 0.713D-02 0.701D-01
 Coeff-Com:  0.931D+00
 Coeff:      0.101D-04 0.194D-03-0.839D-03-0.785D-02 0.713D-02 0.701D-01
 Coeff:      0.931D+00
 Gap=     0.390 Goal=   None    Shift=    0.000
 RMSDP=1.24D-08 MaxDP=3.42D-07 DE=-7.33D-11 OVMax= 2.57D-07

 Cycle   8  Pass 1  IDiag  1:
 RMSU=  3.91D-09    CP:  9.99D-01  1.06D+00  8.18D-01  1.03D+00  1.11D+00
                    CP:  8.24D-01  1.05D+00
 FoFJK:  IHMeth= 1 ICntrl=     0 DoSepK=T KAlg= 1 I1Cent= 0 FoldK=F
 E= -150.331398509441     Delta-E=       -0.000000000001 Rises=F Damp=F
 DIIS: error= 1.32D-08 at cycle   8 NSaved=   8.
 NSaved= 8 IEnMin= 8 EnMin= -150.331398509441     IErMin= 8 ErrMin= 1.32D-08
 ErrMax= 1.32D-08 EMaxC= 1.00D-01 BMatC= 1.82D-14 BMatP= 5.34D-13
 IDIUse=1 WtCom= 1.00D+00 WtEn= 0.00D+00
 Coeff-Com: -0.465D-05 0.131D-03 0.475D-05-0.148D-02-0.114D-01-0.835D-02
 Coeff-Com:  0.165D+00 0.856D+00
 Coeff:     -0.465D-05 0.131D-03 0.475D-05-0.148D-02-0.114D-01-0.835D-02
 Coeff:      0.165D+00 0.856D+00
 Gap=     0.390 Goal=   None    Shift=    0.000
 RMSDP=1.72D-09 MaxDP=5.17D-08 DE=-7.39D-13 OVMax= 5.85D-08

 SCF Done:  E(RCAM-B3LYP) =  -150.331398509     A.U. after    8 cycles
             Convg  =    0.1725D-08             -V/T =  2.0066
 KE= 1.493437758364D+02 PE=-5.028864054873D+02 EE= 1.235725452733D+02
 Leave Link  502 at Thu Feb 26 00:11:04 2015, MaxMem= 1073741824 cpu:      36.5
 (Enter /apps/gaussian/g09_c01/g09/l801.exe)
 Range of M.O.s used for correlation:     1   114
 NBasis=   114 NAE=    12 NBE=    12 NFC=     0 NFV=     0
 NROrb=    114 NOA=    12 NOB=    12 NVA=   102 NVB=   102

 **** Warning!!: The largest alpha MO coefficient is  0.22873249D+02

 Leave Link  801 at Thu Feb 26 00:11:04 2015, MaxMem= 1073741824 cpu:       0.2
 (Enter /apps/gaussian/g09_c01/g09/l1002.exe)
 Minotr:  Closed shell wavefunction.
          Direct CPHF calculation.
          Differentiating once with respect to electric field.
                with respect to dipole field.
          Electric field/nuclear overlap derivatives assumed to be zero.
          Using symmetry in CPHF.
          Requested convergence is 1.0D-08 RMS, and 1.0D-07 maximum.
          Secondary convergence is 1.0D-12 RMS, and 1.0D-12 maximum.
          NewPWx=F KeepS1=T KeepF1=T KeepIn=T MapXYZ=F SortEE=F KeepMc=T.
          MDV=    1073741756 using IRadAn=       1.
 Generate precomputed XC quadrature information.
          Solving linear equations simultaneously, MaxMat=       0.
          There are     3 degrees of freedom in the 1st order CPHF.  IDoFFX=0.
      3 vectors produced by pass  0 Test12= 4.08D-14 3.33D-08 XBig12= 1.89D+01 3.46D+00.
 AX will form     3 AO Fock derivatives at one time.
 FoFJK:  IHMeth= 1 ICntrl=     0 DoSepK=T KAlg= 1 I1Cent= 0 FoldK=F
 FoFCou: FMM=F IPFlag=           0 FMFlag=      100000 FMFlg1=           0
         NFxFlg=           0 DoJE=T BraDBF=F KetDBF=F FulRan=T
         Omega=  0.000000  0.000000  1.000000  0.000000  0.000000 ICntrl=     500 IOpCl=  0
         NMat0=    3 NMatS0=    3 NMatT0=    0 NMatD0=    3 NMtDS0=    0 NMtDT0=    0
         I1Cent=           0 NGrid=           0.
 Symmetry not used in FoFCou.
      3 vectors produced by pass  1 Test12= 4.08D-14 3.33D-08 XBig12= 3.29D+00 5.07D-01.
 FoFJK:  IHMeth= 1 ICntrl=     0 DoSepK=T KAlg= 1 I1Cent= 0 FoldK=F
      3 vectors produced by pass  2 Test12= 4.08D-14 3.33D-08 XBig12= 5.35D-01 2.99D-01.
 FoFJK:  IHMeth= 1 ICntrl=     0 DoSepK=T KAlg= 1 I1Cent= 0 FoldK=F
      3 vectors produced by pass  3 Test12= 4.08D-14 3.33D-08 XBig12= 1.82D-02 3.91D-02.
 FoFJK:  IHMeth= 1 ICntrl=     0 DoSepK=T KAlg= 1 I1Cent= 0 FoldK=F
      3 vectors produced by pass  4 Test12= 4.08D-14 3.33D-08 XBig12= 6.32D-04 4.83D-03.
 FoFJK:  IHMeth= 1 ICntrl=     0 DoSepK=T KAlg= 1 I1Cent= 0 FoldK=F
      3 vectors produced by pass  5 Test12= 4.08D-14 3.33D-08 XBig12= 1.03D-04 4.24D-03.
 FoFJK:  IHMeth= 1 ICntrl=     0 DoSepK=T KAlg= 1 I1Cent= 0 FoldK=F
      3 vectors produced by pass  6 Test12= 4.08D-14 3.33D-08 XBig12= 2.99D-06 4.96D-04.
 FoFJK:  IHMeth= 1 ICntrl=     0 DoSepK=T KAlg= 1 I1Cent= 0 FoldK=F
      3 vectors produced by pass  7 Test12= 4.08D-14 3.33D-08 XBig12= 6.42D-08 5.92D-05.
 FoFJK:  IHMeth= 1 ICntrl=     0 DoSepK=T KAlg= 1 I1Cent= 0 FoldK=F
      2 vectors produced by pass  8 Test12= 4.08D-14 3.33D-08 XBig12= 7.48D-10 6.92D-06.
 FoFJK:  IHMeth= 1 ICntrl=     0 DoSepK=T KAlg= 1 I1Cent= 0 FoldK=F
      2 vectors produced by pass  9 Test12= 4.08D-14 3.33D-08 XBig12= 6.77D-12 5.25D-07.
 FoFJK:  IHMeth= 1 ICntrl=     0 DoSepK=T KAlg= 1 I1Cent= 0 FoldK=F
      1 vectors produced by pass 10 Test12= 4.08D-14 3.33D-08 XBig12= 8.47D-14 5.58D-08.
 FoFJK:  IHMeth= 1 ICntrl=     0 DoSepK=T KAlg= 1 I1Cent= 0 FoldK=F
 Inverted reduced A of dimension    29 with in-core refinement.
 End of Minotr Frequency-dependent properties file   721 does not exist.
 End of Minotr Frequency-dependent properties file   722 does not exist.
 Leave Link 1002 at Thu Feb 26 00:11:17 2015, MaxMem= 1073741824 cpu:     107.4
 (Enter /apps/gaussian/g09_c01/g09/l1101.exe)
 Using compressed storage, NAtomX=     8.
 Will process   9 centers per pass.
 Leave Link 1101 at Thu Feb 26 00:11:17 2015, MaxMem= 1073741824 cpu:       1.2
 (Enter /apps/gaussian/g09_c01/g09/l1102.exe)
 Symmetrizing basis deriv contribution to polar:
 IMax=3 JMax=2 DiffMx= 0.00D+00
 Leave Link 1102 at Thu Feb 26 00:11:17 2015, MaxMem= 1073741824 cpu:       0.2
 (Enter /apps/gaussian/g09_c01/g09/l1110.exe)
 Forming Gx(P) for the SCF density, NAtomX=     8.
 Integral derivatives from FoFDir/FoFCou, PRISM(SPDF).
 Do as many integral derivatives as possible in FoFDir.
 G2DrvN: MDV=    1073741656.
 G2DrvN: will do     9 centers at a time, making    1 passes doing MaxLOS=2.
 Calling FoFCou, ICntrl=  3107 FMM=F I1Cent=   0 AccDes= 0.00D+00.
 FoFJK:  IHMeth= 1 ICntrl=  3107 DoSepK=T KAlg= 1 I1Cent= 0 FoldK=F
 FoFCou: FMM=F IPFlag=           0 FMFlag=      100000 FMFlg1=           0
         NFxFlg=           0 DoJE=F BraDBF=F KetDBF=F FulRan=T
         Omega=  0.000000  0.000000  1.000000  0.000000  0.000000 ICntrl=    3507 IOpCl=  0
         NMat0=    1 NMatS0=    1 NMatT0=    0 NMatD0=    4 NMtDS0=    3 NMtDT0=    0
         I1Cent=           0 NGrid=           0.
 Petite list used in FoFCou.
 FoFDir/FoFCou used for L=0 through L=2.
 End of G2Drv Frequency-dependent properties file   721 does not exist.
 End of G2Drv Frequency-dependent properties file   722 does not exist.
 Leave Link 1110 at Thu Feb 26 00:11:24 2015, MaxMem= 1073741824 cpu:      53.8
 (Enter /apps/gaussian/g09_c01/g09/l1002.exe)
 Minotr:  Closed shell wavefunction.
          IDoAtm=11111111
          Direct CPHF calculation.
          Differentiating once with respect to electric field.
                with respect to dipole field.
          Differentiating once with respect to nuclear coordinates.
          Using symmetry in CPHF.
          Requested convergence is 1.0D-08 RMS, and 1.0D-07 maximum.
          Secondary convergence is 1.0D-12 RMS, and 1.0D-12 maximum.
          NewPWx=T KeepS1=F KeepF1=F KeepIn=T MapXYZ=F SortEE=F KeepMc=T.
          MDV=    1073741740 using IRadAn=       1.
 Generate precomputed XC quadrature information.
          Solving linear equations simultaneously, MaxMat=       0.
 FoFJK:  IHMeth= 1 ICntrl=     0 DoSepK=T KAlg= 1 I1Cent= 0 FoldK=F
 FoFCou: FMM=F IPFlag=           0 FMFlag=      100000 FMFlg1=           0
         NFxFlg=           0 DoJE=F BraDBF=F KetDBF=F FulRan=T
         Omega=  0.000000  0.000000  1.000000  0.000000  0.000000 ICntrl=     500 IOpCl=  0
         NMat0=   18 NMatS0=   18 NMatT0=    0 NMatD0=   18 NMtDS0=    0 NMtDT0=    0
         I1Cent=           0 NGrid=           0.
 Integrals replicated using symmetry in FoFCou.
          There are    18 degrees of freedom in the 1st order CPHF.  IDoFFX=4.
 Will reuse    3 saved solutions.
     15 vectors produced by pass  0 Test12= 6.80D-15 5.56D-09 XBig12= 1.25D-01 1.35D-01.
 AX will form    15 AO Fock derivatives at one time.
 FoFJK:  IHMeth= 1 ICntrl=     0 DoSepK=T KAlg= 1 I1Cent= 0 FoldK=F
     15 vectors produced by pass  1 Test12= 6.80D-15 5.56D-09 XBig12= 8.78D-03 4.55D-02.
 FoFJK:  IHMeth= 1 ICntrl=     0 DoSepK=T KAlg= 1 I1Cent= 0 FoldK=F
     15 vectors produced by pass  2 Test12= 6.80D-15 5.56D-09 XBig12= 4.45D-04 5.45D-03.
 FoFJK:  IHMeth= 1 ICntrl=     0 DoSepK=T KAlg= 1 I1Cent= 0 FoldK=F
     15 vectors produced by pass  3 Test12= 6.80D-15 5.56D-09 XBig12= 3.04D-06 5.06D-04.
 FoFJK:  IHMeth= 1 ICntrl=     0 DoSepK=T KAlg= 1 I1Cent= 0 FoldK=F
     15 vectors produced by pass  4 Test12= 6.80D-15 5.56D-09 XBig12= 1.38D-08 2.44D-05.
 FoFJK:  IHMeth= 1 ICntrl=     0 DoSepK=T KAlg= 1 I1Cent= 0 FoldK=F
     15 vectors produced by pass  5 Test12= 6.80D-15 5.56D-09 XBig12= 5.35D-11 1.36D-06.
 FoFJK:  IHMeth= 1 ICntrl=     0 DoSepK=T KAlg= 1 I1Cent= 0 FoldK=F
     10 vectors produced by pass  6 Test12= 6.80D-15 5.56D-09 XBig12= 1.91D-13 8.84D-08.
 FoFJK:  IHMeth= 1 ICntrl=     0 DoSepK=T KAlg= 1 I1Cent= 0 FoldK=F
      1 vectors produced by pass  7 Test12= 6.80D-15 5.56D-09 XBig12= 5.83D-16 5.71D-09.
 FoFJK:  IHMeth= 1 ICntrl=     0 DoSepK=T KAlg= 1 I1Cent= 0 FoldK=F
 Inverted reduced A of dimension   101 with in-core refinement.
 FullF1:  Do perturbations    1 to    18.
 FoFJK:  IHMeth= 1 ICntrl=     0 DoSepK=T KAlg= 1 I1Cent= 0 FoldK=F
 Isotropic polarizability for W=    0.000000       26.80 Bohr**3.
 FoFJK:  IHMeth= 1 ICntrl=     0 DoSepK=T KAlg= 1 I1Cent= 0 FoldK=F
 FullF1:  Do perturbations    1 to     6.
 FoFJK:  IHMeth= 1 ICntrl=     0 DoSepK=T KAlg= 1 I1Cent= 0 FoldK=F
 End of Minotr Frequency-dependent properties file   721 does not exist.
 End of Minotr Frequency-dependent properties file   722 does not exist.
 Leave Link 1002 at Thu Feb 26 00:11:43 2015, MaxMem= 1073741824 cpu:     153.8
[...]
 asis sets
                                                            Raman Spectrum
 
     33  33          3                                                 1  1  1     1 1       1 1 1                                   
     66  55          2                                                 7  6  6     4 3       1 0 0         7  66 5 5                 
     77  65          3                                                 9  9  0     2 8       3 9 3         2  42 5 1                 
     98  72          0                                                 2  3  8     0 1       4 5 8         8  97 4 7                 
 
     XX  XX          X                                                 X  X  X     X X       X X X         X   X   X                 
     XX  X           X                                                             X         X                                       
     XX  X           X                                                                                                               
     X   X           X                                                                                                               
         X           X                                                                                                               
         X           X                                                                                                               
         X           X                                                                                                               
         X                                                                                                                           
         X                                                                                                                           
         X                                                                                                                           
         X                                                                                                                           
         X                                                                                                                           
         X                                                                                                                           
         X                                                                                                                           
         X                                                                                                                           
         X                                                                                                                           
         X                                                                                                                           
         X                                                                                                                           
         X                                                                                                                           
         X                                                                                                                           
 
 ***** Axes restored to original set *****
 -------------------------------------------------------------------
 Center     Atomic                   Forces (Hartrees/Bohr)
 Number     Number              X              Y              Z
 -------------------------------------------------------------------
      1        6           0.000000000    0.000000207    0.000000000
      2        1           0.000000000   -0.000000428    0.000000000
      3        7          -0.000000529    0.000000240    0.000000000
      4        1           0.000000047   -0.000000100    0.000000000
      5        1           0.000000125   -0.000000030    0.000000000
      6        7           0.000000529    0.000000240    0.000000000
      7        1          -0.000000125   -0.000000030    0.000000000
      8        1          -0.000000047   -0.000000100    0.000000000
 -------------------------------------------------------------------
 Cartesian Forces:  Max     0.000000529 RMS     0.000000200
 Force constants in Cartesian coordinates: 
                1             2             3             4             5 
      1  0.955474D+00
      2  0.000000D+00  0.852782D+00
      3  0.000000D+00  0.000000D+00  0.173792D+00
      4 -0.639348D-01  0.000000D+00  0.000000D+00  0.698605D-01
      5  0.000000D+00 -0.352292D+00  0.000000D+00  0.000000D+00  0.365913D+00
      6  0.000000D+00  0.000000D+00 -0.563111D-01  0.000000D+00  0.000000D+00
      7 -0.423722D+00  0.168400D+00  0.000000D+00 -0.125439D-03  0.382374D-03
      8  0.150030D+00 -0.258121D+00  0.000000D+00  0.350702D-01 -0.900537D-02
      9  0.000000D+00  0.000000D+00 -0.549876D-01  0.000000D+00  0.000000D+00
     10 -0.260002D-01 -0.175337D-01  0.000000D+00  0.105329D-02  0.309717D-03
     11  0.163210D-01  0.164725D-01  0.000000D+00  0.117285D-02  0.687021D-03
     12  0.000000D+00  0.000000D+00 -0.554216D-02  0.000000D+00  0.000000D+00
     13  0.395194D-02  0.362056D-01  0.000000D+00 -0.389067D-02  0.106248D-02
     14  0.745197D-02 -0.859631D-02  0.000000D+00  0.101015D-02  0.150800D-02
     15  0.000000D+00  0.000000D+00  0.178932D-02  0.000000D+00  0.000000D+00
     16 -0.423722D+00 -0.168400D+00  0.000000D+00 -0.125440D-03 -0.382374D-03
     17 -0.150030D+00 -0.258121D+00  0.000000D+00 -0.350702D-01 -0.900537D-02
     18  0.000000D+00  0.000000D+00 -0.549876D-01  0.000000D+00  0.000000D+00
     19  0.395194D-02 -0.362056D-01  0.000000D+00 -0.389067D-02 -0.106248D-02
     20 -0.745197D-02 -0.859632D-02  0.000000D+00 -0.101015D-02  0.150800D-02
     21  0.000000D+00  0.000000D+00  0.178932D-02  0.000000D+00  0.000000D+00
     22 -0.260002D-01  0.175337D-01  0.000000D+00  0.105329D-02 -0.309718D-03
     23 -0.163210D-01  0.164725D-01  0.000000D+00 -0.117285D-02  0.687020D-03
     24  0.000000D+00  0.000000D+00 -0.554216D-02  0.000000D+00  0.000000D+00
                6             7             8             9            10 
      6  0.321318D-01
      7  0.000000D+00  0.925762D+00
      8  0.000000D+00 -0.235767D-01  0.871186D+00
      9  0.828209D-02  0.000000D+00  0.000000D+00  0.599670D-01
     10  0.000000D+00 -0.339853D+00 -0.175444D+00  0.000000D+00  0.352371D+00
     11  0.000000D+00 -0.180305D+00 -0.193375D+00  0.000000D+00  0.182838D+00
     12 -0.409455D-02  0.000000D+00  0.000000D+00 -0.115675D-01  0.000000D+00
     13  0.000000D+00 -0.799615D-01  0.278156D-01  0.000000D+00  0.112003D-01
     14  0.000000D+00  0.267965D-01 -0.445702D+00  0.000000D+00  0.525125D-02
     15  0.790210D-02  0.000000D+00  0.000000D+00 -0.179316D-01  0.000000D+00
     16  0.000000D+00 -0.860252D-01 -0.960357D-02  0.000000D+00  0.206095D-02
     17  0.000000D+00  0.960357D-02  0.362883D-01  0.000000D+00  0.523921D-02
     18  0.828209D-02  0.000000D+00  0.000000D+00  0.139615D-01  0.000000D+00
     19  0.000000D+00  0.186385D-02  0.947457D-03  0.000000D+00 -0.124537D-03
     20  0.000000D+00  0.548223D-02  0.279922D-03  0.000000D+00 -0.246950D-03
     21  0.790210D-02  0.000000D+00  0.000000D+00 -0.396505D-02  0.000000D+00
     22  0.000000D+00  0.206095D-02 -0.523921D-02  0.000000D+00 -0.708039D-03
     23  0.000000D+00 -0.678260D-02 -0.155094D-02  0.000000D+00 -0.413634D-03
     24 -0.409454D-02  0.000000D+00  0.000000D+00  0.624123D-02  0.000000D+00
               11            12            13            14            15 
     11  0.184745D+00
     12  0.000000D+00  0.133368D-01
     13 -0.274833D-01  0.000000D+00  0.686433D-01
     14 -0.734604D-02  0.000000D+00 -0.358336D-01  0.459585D+00
     15  0.000000D+00 -0.739523D-03  0.000000D+00  0.000000D+00  0.133231D-01
     16  0.678260D-02  0.000000D+00  0.186385D-02 -0.548223D-02  0.000000D+00
     17 -0.155094D-02  0.000000D+00 -0.947457D-03  0.279922D-03  0.000000D+00
     18  0.000000D+00  0.624123D-02  0.000000D+00  0.000000D+00 -0.396505D-02
     19  0.260455D-03  0.000000D+00 -0.168269D-02  0.558957D-03  0.000000D+00
     20 -0.496427D-03  0.000000D+00 -0.558957D-03  0.766893D-03  0.000000D+00
     21  0.000000D+00 -0.642931D-03  0.000000D+00  0.000000D+00  0.264618D-03
     22  0.413634D-03  0.000000D+00 -0.124537D-03  0.246950D-03  0.000000D+00
     23  0.864415D-03  0.000000D+00 -0.260455D-03 -0.496427D-03  0.000000D+00
     24  0.000000D+00  0.300868D-02  0.000000D+00  0.000000D+00 -0.642931D-03
               16            17            18            19            20 
     16  0.925762D+00
     17  0.235767D-01  0.871186D+00
     18  0.000000D+00  0.000000D+00  0.599670D-01
     19 -0.799615D-01 -0.278156D-01  0.000000D+00  0.686433D-01
     20 -0.267965D-01 -0.445702D+00  0.000000D+00  0.358336D-01  0.459585D+00
     21  0.000000D+00  0.000000D+00 -0.179316D-01  0.000000D+00  0.000000D+00
     22 -0.339853D+00  0.175444D+00  0.000000D+00  0.112003D-01 -0.525125D-02
     23  0.180305D+00 -0.193375D+00  0.000000D+00  0.274833D-01 -0.734604D-02
     24  0.000000D+00  0.000000D+00 -0.115675D-01  0.000000D+00  0.000000D+00
               21            22            23            24 
     21  0.133231D-01
     22  0.000000D+00  0.352371D+00
     23  0.000000D+00 -0.182838D+00  0.184745D+00
     24 -0.739523D-03  0.000000D+00  0.000000D+00  0.133368D-01
 Red2BG is reusing G-inverse.
 Force constants in internal coordinates: 
                1             2             3             4             5 
      1  0.365913D+00
      2  0.470067D-02  0.627901D+00
      3  0.470067D-02  0.618143D-01  0.627901D+00
      4  0.630559D-03  0.488148D-02 -0.596390D-02  0.469688D+00
      5 -0.140150D-02  0.787835D-02 -0.380447D-02 -0.976423D-03  0.462838D+00
      6 -0.140150D-02 -0.380447D-02  0.787835D-02  0.469735D-03  0.880076D-03
      7  0.630559D-03 -0.596390D-02  0.488148D-02  0.377987D-03  0.469735D-03
      8  0.328796D-02  0.773351D-02 -0.331389D-01 -0.240710D-02  0.361521D-02
      9  0.328796D-02 -0.331389D-01  0.773351D-02  0.723002D-03  0.788026D-03
     10 -0.657592D-02  0.254054D-01  0.254054D-01  0.168410D-02 -0.440324D-02
     11 -0.129311D-02  0.163208D-01  0.360884D-02  0.195528D-02 -0.707949D-02
     12  0.179644D-02  0.680884D-02 -0.722859D-03 -0.602648D-02  0.222715D-02
     13 -0.503328D-03 -0.231296D-01 -0.288598D-02  0.407119D-02  0.485233D-02
     14  0.179643D-02 -0.722859D-03  0.680884D-02 -0.168274D-03  0.975235D-03
     15 -0.129311D-02  0.360884D-02  0.163208D-01  0.183368D-03 -0.733530D-03
     16 -0.503328D-03 -0.288598D-02 -0.231296D-01 -0.150947D-04 -0.241705D-03
     17  0.000000D+00  0.000000D+00  0.000000D+00  0.000000D+00  0.000000D+00
     18  0.000000D+00  0.000000D+00  0.000000D+00  0.000000D+00  0.000000D+00
     19  0.000000D+00  0.000000D+00  0.000000D+00  0.000000D+00  0.000000D+00
     20  0.000000D+00  0.000000D+00  0.000000D+00  0.000000D+00  0.000000D+00
     21  0.000000D+00  0.000000D+00  0.000000D+00  0.000000D+00  0.000000D+00
     22  0.000000D+00  0.000000D+00  0.000000D+00  0.000000D+00  0.000000D+00
     23  0.000000D+00  0.000000D+00  0.000000D+00  0.000000D+00  0.000000D+00
     24  0.000000D+00  0.000000D+00  0.000000D+00  0.000000D+00  0.000000D+00
                6             7             8             9            10 
      6  0.462838D+00
      7 -0.976423D-03  0.469688D+00
      8  0.788027D-03  0.723003D-03  0.112329D+00
      9  0.361521D-02 -0.240710D-02 -0.360995D-01  0.112329D+00
     10 -0.440324D-02  0.168410D-02 -0.762296D-01 -0.762296D-01  0.152459D+00
     11 -0.733530D-03  0.183368D-03 -0.801944D-02 -0.415195D-02  0.121714D-01
     12  0.975235D-03 -0.168274D-03  0.927687D-02 -0.124752D-03 -0.915212D-02
     13 -0.241706D-03 -0.150947D-04 -0.125744D-02  0.427670D-02 -0.301927D-02
     14  0.222715D-02 -0.602647D-02 -0.124751D-03  0.927687D-02 -0.915212D-02
     15 -0.707949D-02  0.195528D-02 -0.415195D-02 -0.801944D-02  0.121714D-01
     16  0.485233D-02  0.407119D-02  0.427670D-02 -0.125744D-02 -0.301927D-02
     17  0.000000D+00  0.000000D+00  0.000000D+00  0.000000D+00  0.000000D+00
     18  0.000000D+00  0.000000D+00  0.000000D+00  0.000000D+00  0.000000D+00
     19  0.000000D+00  0.000000D+00  0.000000D+00  0.000000D+00  0.000000D+00
     20  0.000000D+00  0.000000D+00  0.000000D+00  0.000000D+00  0.000000D+00
     21  0.000000D+00  0.000000D+00  0.000000D+00  0.000000D+00  0.000000D+00
     22  0.000000D+00  0.000000D+00  0.000000D+00  0.000000D+00  0.000000D+00
     23  0.000000D+00  0.000000D+00  0.000000D+00  0.000000D+00  0.000000D+00
     24  0.000000D+00  0.000000D+00  0.000000D+00  0.000000D+00  0.000000D+00
               11            12            13            14            15 
     11  0.876818D-01
     12 -0.473206D-01  0.854964D-01
     13 -0.403612D-01 -0.381758D-01  0.785370D-01
     14 -0.161754D-02  0.254088D-02 -0.923338D-03  0.854964D-01
     15  0.207614D-02 -0.161754D-02 -0.458596D-03 -0.473206D-01  0.876818D-01
     16 -0.458595D-03 -0.923338D-03  0.138193D-02 -0.381758D-01 -0.403612D-01
     17  0.000000D+00  0.000000D+00  0.000000D+00  0.000000D+00  0.000000D+00
     18  0.000000D+00  0.000000D+00  0.000000D+00  0.000000D+00  0.000000D+00
     19  0.000000D+00  0.000000D+00  0.000000D+00  0.000000D+00  0.000000D+00
     20  0.000000D+00  0.000000D+00  0.000000D+00  0.000000D+00  0.000000D+00
     21  0.000000D+00  0.000000D+00  0.000000D+00  0.000000D+00  0.000000D+00
     22  0.000000D+00  0.000000D+00  0.000000D+00  0.000000D+00  0.000000D+00
     23  0.000000D+00  0.000000D+00  0.000000D+00  0.000000D+00  0.000000D+00
     24  0.000000D+00  0.000000D+00  0.000000D+00  0.000000D+00  0.000000D+00
               16            17            18            19            20 
     16  0.785370D-01
     17  0.000000D+00  0.111801D-01
     18  0.000000D+00  0.447221D-02  0.145765D-01
     19  0.000000D+00  0.417178D-02 -0.645914D-02  0.171260D-01
     20  0.000000D+00 -0.253611D-02  0.364517D-02  0.649510D-02  0.126764D-01
     21  0.000000D+00 -0.440865D-02 -0.611262D-02  0.652270D-02  0.481873D-02
     22  0.000000D+00 -0.408493D-02 -0.440865D-02  0.292339D-02  0.259967D-02
     23  0.000000D+00  0.259967D-02  0.481873D-02 -0.643154D-02 -0.421248D-02
     24  0.000000D+00  0.292339D-02  0.652270D-02 -0.100309D-01 -0.643154D-02
               21            22            23            24 
     21  0.145765D-01
     22  0.447221D-02  0.111801D-01
     23  0.364517D-02 -0.253611D-02  0.126764D-01
     24 -0.645914D-02  0.417178D-02  0.649510D-02  0.171260D-01
 Leave Link  716 at Thu Feb 26 00:12:41 2015, MaxMem= 1073741824 cpu:       0.2
 (Enter /apps/gaussian/g09_c01/g09/l9999.exe)
 1\1\GINC-CX1-1-7-4\Freq\RCAM-B3LYP\Aug-CC-pVDZ\C1H5N2(1+)\JMF02\26-Feb
 -2015\0\\#p opt(VeryTight,CalcAll,Raman) Integral(Grid=UltraFine) CAM-
 b3lyp/AUG-cc-pVDZ\\Autjob by noodles.sh | Great noodly basis sets\\1,1
 \C,0.,0.4292282359,0.\H,0.,1.5200629131,0.\N,1.1623735016,-0.175774482
 8,0.\H,2.0161913094,0.3687778979,0.\H,1.2577043116,-1.1858859896,0.\N,
 -1.1623735016,-0.1757744828,0.\H,-1.2577043116,-1.1858859896,0.\H,-2.0
 161913094,0.3687778979,0.\\Version=EM64L-G09RevC.01\State=1-A1\HF=-150
 .3313985\RMSD=8.352e-09\RMSF=1.998e-07\ZeroPoint=0.0727669\Thermal=0.0
 764821\Dipole=0.,-0.0672562,0.\DipoleDeriv=1.9963995,0.,0.,0.,0.400039
 8,0.,0.,0.,0.3102935,0.0964316,0.,0.,0.,0.1538167,0.,0.,0.,0.1556329,-
 1.1450698,0.0634973,0.,0.4873313,-0.2969933,0.,0.,0.,-0.3978108,0.3986
 272,0.0556917,0.,0.1063043,0.216434,0.,0.,0.,0.3318113,0.2000271,-0.06
 28132,0.,-0.1194071,0.3036311,0.,0.,0.,0.3330362,-1.1450698,-0.0634973
 ,0.,-0.4873313,-0.2969933,0.,0.,0.,-0.3978108,0.2000271,0.0628132,0.,0
 .1194071,0.3036311,0.,0.,0.,0.3330362,0.3986272,-0.0556917,0.,-0.10630
 43,0.216434,0.,0.,0.,0.3318113\Polar=37.2020126,0.,24.9016647,0.,0.,18
 .2872985\PolarDeriv=0.0000003,0.8988275,-0.0000001,0.,0.,0.0000001,5.7
 870758,0.,-3.57599,0.,0.,1.4721857,0.,0.,0.,-0.0000001,1.3428915,0.,0.
 ,0.8761334,0.,0.,0.,0.,0.8603974,0.,7.3190931,0.,0.,1.2643673,0.,0.,0.
 ,-0.0000002,0.8593139,0.,3.1104079,-1.0131109,-0.3413003,0.,0.,1.65938
 62,-3.6228485,-0.3357609,2.9156103,0.,0.,-0.8650632,0.,0.,0.,3.7089489
 ,-0.8298025,0.,6.7780027,1.15709,1.6516027,0.,0.,0.9000405,2.5461184,1
 .7985279,1.296575,0.,0.,0.535438,0.,0.,0.,0.3468734,0.2195818,0.,2.005
 8715,-1.0314596,0.4736215,0.,0.,0.2105268,-2.2470064,2.151015,-6.08373
 69,0.,0.,-1.0386512,0.,0.,0.,-0.0048301,-0.490882,0.,-3.1104079,-1.013
 1109,0.3413003,0.,0.,-1.6593862,-3.6228485,0.3357609,2.9156103,0.,0.,-
 0.8650632,0.,0.,0.,-3.7089489,-0.8298025,0.,-2.0058715,-1.0314596,-0.4
 736215,0.,0.,-0.2105268,-2.2470064,-2.151015,-6.0837369,0.,0.,-1.03865
 12,0.,0.,0.,0.0048301,-0.490882,0.,-6.7780027,1.15709,-1.6516027,0.,0.
 ,-0.9000405,2.5461184,-1.7985279,1.296575,0.,0.,0.535438,0.,0.,0.,-0.3
 468734,0.2195818,0.\HyperPolar=0.,34.0321844,0.,-5.3250512,0.,0.,0.,0.
 ,-0.1638483,0.\PG=C02V [C2(C1H1),SGV(H4N2)]\NImag=0\\0.95547430,0.,0.8
 5278246,0.,0.,0.17379199,-0.06393484,0.,0.,0.06986048,0.,-0.35229192,0
 .,0.,0.36591263,0.,0.,-0.05631109,0.,0.,0.03213180,-0.42372151,0.16839
 951,0.,-0.00012544,0.00038237,0.,0.92576206,0.15002981,-0.25812142,0.,
 0.03507019,-0.00900537,0.,-0.02357669,0.87118646,0.,0.,-0.05498761,0.,
 0.,0.00828209,0.,0.,0.05996703,-0.02600017,-0.01753366,0.,0.00105329,0
 .00030972,0.,-0.33985321,-0.17544358,0.,0.35237141,0.01632098,0.016472
 48,0.,0.00117285,0.00068702,0.,-0.18030490,-0.19337543,0.,0.18283765,0
 .18474492,0.,0.,-0.00554216,0.,0.,-0.00409455,0.,0.,-0.01156754,0.,0.,
 0.01333680,0.00395194,0.03620563,0.,-0.00389067,0.00106248,0.,-0.07996
 148,0.02781558,0.,0.01120030,-0.02748327,0.,0.06864329,0.00745197,-0.0
 0859631,0.,0.00101015,0.00150800,0.,0.02679651,-0.44570151,0.,0.005251
 25,-0.00734604,0.,-0.03583356,0.45958548,0.,0.,0.00178932,0.,0.,0.0079
 0210,0.,0.,-0.01793164,0.,0.,-0.00073952,0.,0.,0.01332311,-0.42372151,
 -0.16839951,0.,-0.00012544,-0.00038237,0.,-0.08602523,-0.00960357,0.,0
 .00206095,0.00678260,0.,0.00186385,-0.00548223,0.,0.92576206,-0.150029
 82,-0.25812142,0.,-0.03507019,-0.00900537,0.,0.00960357,0.03628829,0.,
 0.00523921,-0.00155094,0.,-0.00094746,0.00027992,0.,0.02357669,0.87118
 646,0.,0.,-0.05498761,0.,0.,0.00828209,0.,0.,0.01396150,0.,0.,0.006241
 23,0.,0.,-0.00396505,0.,0.,0.05996703,0.00395194,-0.03620563,0.,-0.003
 89067,-0.00106248,0.,0.00186385,0.00094746,0.,-0.00012454,0.00026045,0
 .,-0.00168269,0.00055896,0.,-0.07996148,-0.02781558,0.,0.06864329,-0.0
 0745197,-0.00859632,0.,-0.00101015,0.00150800,0.,0.00548223,0.00027992
 ,0.,-0.00024695,-0.00049643,0.,-0.00055896,0.00076689,0.,-0.02679651,-
 0.44570151,0.,0.03583356,0.45958548,0.,0.,0.00178932,0.,0.,0.00790210,
 0.,0.,-0.00396505,0.,0.,-0.00064293,0.,0.,0.00026462,0.,0.,-0.01793164
 ,0.,0.,0.01332311,-0.02600017,0.01753366,0.,0.00105329,-0.00030972,0.,
 0.00206095,-0.00523921,0.,-0.00070804,0.00041363,0.,-0.00012454,0.0002
 4695,0.,-0.33985321,0.17544358,0.,0.01120030,-0.00525125,0.,0.35237141
 ,-0.01632098,0.01647248,0.,-0.00117285,0.00068702,0.,-0.00678260,-0.00
 155094,0.,-0.00041363,0.00086442,0.,-0.00026045,-0.00049643,0.,0.18030
 490,-0.19337543,0.,0.02748327,-0.00734604,0.,-0.18283765,0.18474492,0.
 ,0.,-0.00554216,0.,0.,-0.00409454,0.,0.,0.00624123,0.,0.,0.00300868,0.
 ,0.,-0.00064293,0.,0.,-0.01156754,0.,0.,-0.00073952,0.,0.,0.01333680\\
 0.,-0.00000021,0.,0.,0.00000043,0.,0.00000053,-0.00000024,0.,-0.000000
 05,0.00000010,0.,-0.00000012,0.00000003,0.,-0.00000053,-0.00000024,0.,
 0.00000012,0.00000003,0.,0.00000005,0.00000010,0.\\\@


 BRING ME INTO THE COMPANY OF THOSE WHO SEEK TRUTH,
 AND DELIVER ME FROM THOSE WHO HAVE FOUND IT.
 Job cpu time:  0 days  0 hours 20 minutes 44.1 seconds.
 File lengths (MBytes):  RWF=     14 Int=      0 D2E=      0 Chk=      2 Scr=      1
 Normal termination of Gaussian 09 at Thu Feb 26 00:12:41 2015.
