 Entering Gaussian System, Link 0=g03
 Input=FORMA_CAM-b3lyp_AUG-cc-pVQZ.com
 Output=FORMA_CAM-b3lyp_AUG-cc-pVQZ.log
 Initial command:
 /apps/gaussian/g09_c01/g09/l1.exe /tmp/pbs.8910281.cx1b/Gau-6751.inp -scrdir=/tmp/pbs.8910281.cx1b/
 Entering Link 1 = /apps/gaussian/g09_c01/g09/l1.exe PID=      6757.
  
 Copyright (c) 1988,1990,1992,1993,1995,1998,2003,2009,2011,
            Gaussian, Inc.  All Rights Reserved.
  
 This is part of the Gaussian(R) 09 program.  It is based on
 the Gaussian(R) 03 system (copyright 2003, Gaussian, Inc.),
 the Gaussian(R) 98 system (copyright 1998, Gaussian, Inc.),
 the Gaussian(R) 94 system (copyright 1995, Gaussian, Inc.),
 the Gaussian 92(TM) system (copyright 1992, Gaussian, Inc.),
 the Gaussian 90(TM) system (copyright 1990, Gaussian, Inc.),
 the Gaussian 88(TM) system (copyright 1988, Gaussian, Inc.),
 the Gaussian 86(TM) system (copyright 1986, Carnegie Mellon
 University), and the Gaussian 82(TM) system (copyright 1983,
 Carnegie Mellon University). Gaussian is a federally registered
 trademark of Gaussian, Inc.
  
 This software contains proprietary and confidential information,
 including trade secrets, belonging to Gaussian, Inc.
  
 This software is provided under written license and may be
 used, copied, transmitted, or stored only in accord with that
 written license.
  
 The following legend is applicable only to US Government
 contracts under FAR:
  
                    RESTRICTED RIGHTS LEGEND
  
 Use, reproduction and disclosure by the US Government is
 subject to restrictions as set forth in subparagraphs (a)
 and (c) of the Commercial Computer Software - Restricted
 Rights clause in FAR 52.227-19.
  
 Gaussian, Inc.
 340 Quinnipiac St., Bldg. 40, Wallingford CT 06492
  
  
 ---------------------------------------------------------------
 Warning -- This program may not be used in any manner that
 competes with the business of Gaussian, Inc. or will provide
 assistance to any competitor of Gaussian, Inc.  The licensee
 of this program is prohibited from giving any competitor of
 Gaussian, Inc. access to this program.  By using this program,
 the user acknowledges that Gaussian, Inc. is engaged in the
 business of creating and licensing software in the field of
 computational chemistry and represents and warrants to the
 licensee that it is not a competitor of Gaussian, Inc. and that
 it will not use this program in any manner prohibited above.
 ---------------------------------------------------------------
  

 Cite this work as:
 Gaussian 09, Revision C.01,
 M. J. Frisch, G. W. Trucks, H. B. Schlegel, G. E. Scuseria, 
 M. A. Robb, J. R. Cheeseman, G. Scalmani, V. Barone, B. Mennucci, 
 G. A. Petersson, H. Nakatsuji, M. Caricato, X. Li, H. P. Hratchian, 
 A. F. Izmaylov, J. Bloino, G. Zheng, J. L. Sonnenberg, M. Hada, 
 M. Ehara, K. Toyota, R. Fukuda, J. Hasegawa, M. Ishida, T. Nakajima, 
 Y. Honda, O. Kitao, H. Nakai, T. Vreven, J. A. Montgomery, Jr., 
 J. E. Peralta, F. Ogliaro, M. Bearpark, J. J. Heyd, E. Brothers, 
 K. N. Kudin, V. N. Staroverov, T. Keith, R. Kobayashi, J. Normand, 
 K. Raghavachari, A. Rendell, J. C. Burant, S. S. Iyengar, J. Tomasi, 
 M. Cossi, N. Rega, J. M. Millam, M. Klene, J. E. Knox, J. B. Cross, 
 V. Bakken, C. Adamo, J. Jaramillo, R. Gomperts, R. E. Stratmann, 
 O. Yazyev, A. J. Austin, R. Cammi, C. Pomelli, J. W. Ochterski, 
 R. L. Martin, K. Morokuma, V. G. Zakrzewski, G. A. Voth, 
 P. Salvador, J. J. Dannenberg, S. Dapprich, A. D. Daniels, 
 O. Farkas, J. B. Foresman, J. V. Ortiz, J. Cioslowski, 
 and D. J. Fox, Gaussian, Inc., Wallingford CT, 2010.
 
 ******************************************
 Gaussian 09:  EM64L-G09RevC.01 23-Sep-2011
                26-Feb-2015 
 ******************************************
 %Chk=FORMA_CAM-b3lyp_AUG-cc-pVQZ.chk
 %Mem=8Gb
 %nproc=8
 Will use up to    8 processors via shared memory.
 ----------------------------------------------------------------------
 #p opt(VeryTight,CalcAll,Raman) Integral(Grid=UltraFine) CAM-b3lyp/AUG
 -cc-pVQZ
 ----------------------------------------------------------------------
 1/7=1,10=4,14=-1,18=20,19=15,26=3,38=1/1,3;
 2/9=110,12=2,17=6,18=5,40=1/2;
 3/5=16,6=2,7=10,11=2,16=1,25=1,30=1,71=2,74=-40,75=-5/1,2,3;
 4//1;
 5/5=2,38=5/2;
 8/6=4,10=90,11=11/1;
 10/13=10,15=4/2;
 11/6=3,8=1,9=11,15=111,16=1/1,2,10;
 10/6=1/2;
 6/7=2,8=2,9=2,10=2,18=1,28=1/1;
 7/10=1,25=1/1,2,3,16;
 1/7=1,10=4,14=-1,18=20,19=15/3(3);
 2/9=110/2;
 7/8=1,9=1,25=1,44=-1/16;
 99//99;
 2/9=110/2;
 3/5=16,6=2,7=10,11=2,16=1,25=1,30=1,71=2,74=-40,75=-5/1,2,3;
 4/5=5,16=3/1;
 5/5=2,38=5/2;
 8/6=4,10=90,11=11/1;
 10/13=10,15=4/2;
 11/6=3,8=1,9=11,15=111,16=1/1,2,10;
 10/6=1/2;
 7/10=1,25=1/1,2,3,16;
 1/7=1,10=4,14=-1,18=20,19=15/3(-9);
 2/9=110/2;
 6/7=2,8=2,9=2,10=2,18=1,19=2,28=1/1;
 7/8=1,9=1,25=1,44=-1/16;
 99//99;
 Leave Link    1 at Thu Feb 26 00:15:13 2015, MaxMem= 1073741824 cpu:       0.3
 (Enter /apps/gaussian/g09_c01/g09/l101.exe)
 ----------------------------------------------
 Autjob by noodles.sh | Great noodly basis sets
 ----------------------------------------------
 Charge =  1 Multiplicity = 1
 Symbolic Z-Matrix:
 C                     0.        0.42727   0. 
 H                     0.        1.51386   0. 
 N                     1.16818  -0.17499   0. 
 H                     2.0221    0.37151   0. 
 H                     1.27341  -1.18533   0. 
 N                    -1.16818  -0.17499   0. 
 H                    -1.27341  -1.18533   0. 
 H                    -2.0221    0.37151   0. 
 
 NAtoms=      8 NQM=        0 NQMF=       0 NMMI=      8 NMMIF=      0
                NMic=       0 NMicF=      0.
                    Isotopes and Nuclear Properties:
 (Nuclear quadrupole moments (NQMom) in fm**2, nuclear magnetic moments (NMagM)
  in nuclear magnetons)

  Atom         1           2           3           4           5           6           7           8
 IAtWgt=          12           1          14           1           1          14           1           1
 AtmWgt=  12.0000000   1.0078250  14.0030740   1.0078250   1.0078250  14.0030740   1.0078250   1.0078250
 NucSpn=           0           1           2           1           1           2           1           1
 AtZEff=   0.0000000   0.0000000   0.0000000   0.0000000   0.0000000   0.0000000   0.0000000   0.0000000
 NQMom=    0.0000000   0.0000000   2.0440000   0.0000000   0.0000000   2.0440000   0.0000000   0.0000000
 NMagM=    0.0000000   2.7928460   0.4037610   2.7928460   2.7928460   0.4037610   2.7928460   2.7928460
 Leave Link  101 at Thu Feb 26 00:15:14 2015, MaxMem= 1073741824 cpu:       1.1
 (Enter /apps/gaussian/g09_c01/g09/l103.exe)

 GradGradGradGradGradGradGradGradGradGradGradGradGradGradGradGradGradGrad
 Berny optimization.
 Initialization pass.
                           ----------------------------
                           !    Initial Parameters    !
                           ! (Angstroms and Degrees)  !
 --------------------------                            --------------------------
 ! Name  Definition              Value          Derivative Info.                !
 --------------------------------------------------------------------------------
 ! R1    R(1,2)                  1.0866         calculate D2E/DX2 analytically  !
 ! R2    R(1,3)                  1.3143         calculate D2E/DX2 analytically  !
 ! R3    R(1,6)                  1.3143         calculate D2E/DX2 analytically  !
 ! R4    R(3,4)                  1.0138         calculate D2E/DX2 analytically  !
 ! R5    R(3,5)                  1.0158         calculate D2E/DX2 analytically  !
 ! R6    R(6,7)                  1.0158         calculate D2E/DX2 analytically  !
 ! R7    R(6,8)                  1.0138         calculate D2E/DX2 analytically  !
 ! A1    A(2,1,3)              117.2736         calculate D2E/DX2 analytically  !
 ! A2    A(2,1,6)              117.2736         calculate D2E/DX2 analytically  !
 ! A3    A(3,1,6)              125.4529         calculate D2E/DX2 analytically  !
 ! A4    A(1,3,4)              120.1077         calculate D2E/DX2 analytically  !
 ! A5    A(1,3,5)              123.2199         calculate D2E/DX2 analytically  !
 ! A6    A(4,3,5)              116.6724         calculate D2E/DX2 analytically  !
 ! A7    A(1,6,7)              123.2199         calculate D2E/DX2 analytically  !
 ! A8    A(1,6,8)              120.1077         calculate D2E/DX2 analytically  !
 ! A9    A(7,6,8)              116.6724         calculate D2E/DX2 analytically  !
 ! D1    D(2,1,3,4)              0.0            calculate D2E/DX2 analytically  !
 ! D2    D(2,1,3,5)            180.0            calculate D2E/DX2 analytically  !
 ! D3    D(6,1,3,4)            180.0            calculate D2E/DX2 analytically  !
 ! D4    D(6,1,3,5)              0.0            calculate D2E/DX2 analytically  !
 ! D5    D(2,1,6,7)            180.0            calculate D2E/DX2 analytically  !
 ! D6    D(2,1,6,8)              0.0            calculate D2E/DX2 analytically  !
 ! D7    D(3,1,6,7)              0.0            calculate D2E/DX2 analytically  !
 ! D8    D(3,1,6,8)            180.0            calculate D2E/DX2 analytically  !
 --------------------------------------------------------------------------------
 Trust Radius=3.00D-01 FncErr=1.00D-07 GrdErr=1.00D-06
 Number of steps in this run=     34 maximum allowed number of steps=    100.
 GradGradGradGradGradGradGradGradGradGradGradGradGradGradGradGradGradGrad

 Leave Link  103 at Thu Feb 26 00:15:14 2015, MaxMem= 1073741824 cpu:       0.0
 (Enter /apps/gaussian/g09_c01/g09/l202.exe)
                          Input orientation:                          
 ---------------------------------------------------------------------
 Center     Atomic      Atomic             Coordinates (Angstroms)
 Number     Number       Type             X           Y           Z
 ---------------------------------------------------------------------
      1          6           0        0.000000    0.427270    0.000000
      2          1           0        0.000000    1.513864    0.000000
      3          7           0        1.168180   -0.174990    0.000000
      4          1           0        2.022103    0.371511    0.000000
      5          1           0        1.273414   -1.185325    0.000000
      6          7           0       -1.168180   -0.174990    0.000000
      7          1           0       -1.273414   -1.185325    0.000000
      8          1           0       -2.022103    0.371511    0.000000
 ---------------------------------------------------------------------
                    Distance matrix (angstroms):
                    1          2          3          4          5
     1  C    0.000000
     2  H    1.086594   0.000000
     3  N    1.314291   2.053502   0.000000
     4  H    2.022872   2.322471   1.013828   0.000000
     5  H    2.054762   2.984494   1.015801   1.727505   0.000000
     6  N    1.314291   2.053502   2.336360   3.236753   2.642377
     7  H    2.054762   2.984494   2.642377   3.644746   2.546828
     8  H    2.022872   2.322471   3.236753   4.044206   3.644746
                    6          7          8
     6  N    0.000000
     7  H    1.015801   0.000000
     8  H    1.013828   1.727505   0.000000
 Stoichiometry    CH5N2(1+)
 Framework group  C2V[C2(CH),SGV(H4N2)]
 Deg. of freedom     7
 Full point group                 C2V     NOp   4
 Largest Abelian subgroup         C2V     NOp   4
 Largest concise Abelian subgroup C2      NOp   2
                         Standard orientation:                         
 ---------------------------------------------------------------------
 Center     Atomic      Atomic             Coordinates (Angstroms)
 Number     Number       Type             X           Y           Z
 ---------------------------------------------------------------------
      1          6           0        0.000000    0.000000    0.427270
      2          1           0        0.000000    0.000000    1.513864
      3          7           0        0.000000    1.168180   -0.174990
      4          1           0        0.000000    2.022103    0.371511
      5          1           0        0.000000    1.273414   -1.185325
      6          7           0        0.000000   -1.168180   -0.174990
      7          1           0        0.000000   -1.273414   -1.185325
      8          1           0        0.000000   -2.022103    0.371511
 ---------------------------------------------------------------------
 Rotational constants (GHZ):     59.6815563     10.1627081      8.6839806
 Leave Link  202 at Thu Feb 26 00:15:14 2015, MaxMem= 1073741824 cpu:       0.0
 (Enter /apps/gaussian/g09_c01/g09/l301.exe)
 Standard basis: Aug-CC-pVQZ (5D, 7F)
 Ernie: Thresh=  0.10000D-02 Tol=  0.10000D-05 Strict=F.
 Ernie:  9 primitive shells out of 194 were deleted.
 There are   160 symmetry adapted basis functions of A1  symmetry.
 There are    78 symmetry adapted basis functions of A2  symmetry.
 There are    92 symmetry adapted basis functions of B1  symmetry.
 There are   140 symmetry adapted basis functions of B2  symmetry.
 Integral buffers will be    131072 words long.
 Raffenetti 2 integral format.
 Two-electron integral symmetry is turned on.
   470 basis functions,   657 primitive gaussians,   590 cartesian basis functions
    12 alpha electrons       12 beta electrons
       nuclear repulsion energy        79.4241064683 Hartrees.
 IExCor=20419 DFT=T Ex+Corr=CAM-B3LYP ExCW=0 ScaHFX=  1.000000
 ScaDFX=  1.000000  1.000000  1.000000  0.810000 ScalE2=  1.000000  1.000000
 IRadAn=      5 IRanWt=     -1 IRanGd=            0 ICorTp=0
  HFx wShort=  0.000000 wLong=  0.330000 cFull=  0.190000 cShort=  0.000000 cLong=  0.460000
  DFx wShort=  0.000000 wLong=  0.330000 cFull=  0.190000 cShort=  0.000000 cLong=  0.460000
 NAtoms=    8 NActive=    8 NUniq=    5 SFac= 2.56D+00 NAtFMM=   60 NAOKFM=F Big=F
 Leave Link  301 at Thu Feb 26 00:15:14 2015, MaxMem= 1073741824 cpu:       0.3
 (Enter /apps/gaussian/g09_c01/g09/l302.exe)
 NPDir=0 NMtPBC=     1 NCelOv=     1 NCel=       1 NClECP=     1 NCelD=      1
         NCelK=      1 NCelE2=     1 NClLst=     1 CellRange=     0.0.
 One-electron integrals computed using PRISM.
 One-electron integral symmetry used in STVInt
 NBasis=   470 RedAO= T  NBF=   160    78    92   140
 NBsUse=   470 1.00D-06 NBFU=   160    78    92   140
 Precomputing XC quadrature grid using
 IXCGrd= 2 IRadAn=           5 IRanWt=          -1 IRanGd=           0 AccXCQ= 0.00D+00.
 NRdTot=     687 NPtTot=      185464 NUsed=      190390 NTot=      190422
 NSgBfM=   590   590   590   590   590 NAtAll=     8     8.
 Leave Link  302 at Thu Feb 26 00:15:14 2015, MaxMem= 1073741824 cpu:       3.8
 (Enter /apps/gaussian/g09_c01/g09/l303.exe)
 DipDrv:  MaxL=1.
 Leave Link  303 at Thu Feb 26 00:15:14 2015, MaxMem= 1073741824 cpu:       0.6
 (Enter /apps/gaussian/g09_c01/g09/l401.exe)
 Harris functional with IExCor=20419 diagonalized for initial guess.
 ExpMin= 2.36D-02 ExpMax= 4.58D+04 ExpMxC= 4.42D+02 IAcc=3 IRadAn=         5 AccDes= 0.00D+00
 HarFok:  IExCor=20419 AccDes= 0.00D+00 IRadAn=         5 IDoV= 1
 ScaDFX=  1.000000  1.000000  1.000000  1.000000
 FoFCou: FMM=F IPFlag=           0 FMFlag=      100000 FMFlg1=           0
         NFxFlg=           0 DoJE=T BraDBF=F KetDBF=T FulRan=T
         Omega=  0.000000  0.000000  1.000000  0.000000  0.000000 ICntrl=     500 IOpCl=  0
         NMat0=    1 NMatS0=    1 NMatT0=    0 NMatD0=    1 NMtDS0=    0 NMtDT0=    0
         I1Cent=           4 NGrid=           0.
 Petite list used in FoFCou.
 Harris En= -144.714135348513    
 Initial guess orbital symmetries:
       Occupied  (B2) (A1) (A1) (A1) (B2) (A1) (A1) (B2) (B2) (A1)
                 (B1) (A2)
       Virtual   (A1) (B2) (A1) (A1) (B1) (B2) (B1) (A1) (B2) (A1)
                 (A2) (A1) (B2) (B1) (A1) (B2) (A1) (B1) (B2) (A1)
                 (A2) (B2) (A1) (B1) (B2) (A1) (A1) (A1) (B1) (A2)
                 (A1) (B2) (B2) (A1) (B1) (A2) (A1) (B2) (B2) (B2)
                 (A1) (B1) (A1) (B2) (A1) (B1) (A2) (B2) (B1) (A1)
                 (B2) (B2) (A1) (A2) (A1) (A1) (B2) (B1) (A1) (B2)
                 (A1) (A2) (A1) (B2) (B1) (A2) (A1) (B1) (A1) (B2)
                 (B1) (B1) (B2) (A2) (A1) (A1) (B2) (B2) (A1) (A2)
                 (B1) (A1) (A2) (A1) (B2) (B2) (B1) (A2) (A1) (A2)
                 (B2) (B2) (A1) (B1) (B2) (A1) (B2) (A1) (A1) (A2)
                 (B2) (B1) (A1) (B1) (B2) (A1) (A2) (A1) (B2) (B1)
                 (B2) (B1) (A1) (A2) (A1) (A1) (B1) (B2) (A2) (B1)
                 (B2) (A1) (A1) (B2) (A1) (B1) (B2) (A2) (A1) (B2)
                 (A2) (A1) (B2) (B1) (B1) (B2) (A1) (A2) (B2) (A1)
                 (B1) (A2) (A1) (B2) (B1) (B2) (A1) (A2) (B1) (B2)
                 (A1) (A2) (B2) (A1) (B1) (A1) (B2) (A1) (A2) (B2)
                 (A1) (B1) (A1) (A2) (B2) (B1) (A1) (A1) (B1) (B2)
                 (A1) (B1) (B2) (A2) (A2) (B1) (B2) (A1) (A2) (B2)
                 (A1) (B1) (B1) (A1) (B2) (A2) (A1) (B2) (A1) (B2)
                 (A1) (A2) (B2) (B1) (B2) (A2) (B2) (A1) (B1) (A2)
                 (A1) (B1) (B2) (A1) (A1) (A2) (B1) (B2) (B2) (A1)
                 (B1) (B2) (A2) (B1) (A1) (A1) (B2) (A1) (A2) (B2)
                 (B1) (B2) (A2) (B1) (B2) (A1) (A1) (A1) (A2) (B2)
                 (B1) (A1) (A2) (A1) (B2) (B1) (B2) (A1) (A2) (B2)
                 (A1) (A1) (B2) (B1) (B2) (A1) (A2) (B2) (B1) (B2)
                 (A1) (A1) (A2) (B1) (B2) (A2) (A1) (B1) (A1) (B2)
                 (A1) (B1) (A2) (A1) (B2) (A2) (A1) (B2) (B1) (A1)
                 (B2) (A2) (B1) (A1) (B2) (A1) (A2) (B2) (B1) (A1)
                 (B2) (A1) (B2) (A2) (B2) (B1) (A1) (B1) (A1) (B2)
                 (A2) (B2) (B1) (A2) (A1) (B2) (A1) (A1) (B2) (A1)
                 (B2) (A1) (B2) (A2) (B1) (B1) (A1) (B1) (B1) (B2)
                 (A1) (A2) (B2) (A1) (B1) (A2) (B1) (A1) (A2) (B2)
                 (A1) (B2) (B1) (A1) (B2) (A2) (B2) (A1) (A1) (B1)
                 (A2) (B1) (B2) (B1) (B2) (A1) (B2) (A2) (B1) (A1)
                 (A1) (A2) (B2) (A2) (A1) (B2) (A2) (A1) (B1) (B1)
                 (B2) (A1) (A2) (B1) (A1) (A2) (B2) (B1) (A1) (B1)
                 (A2) (B2) (A1) (B2) (A1) (A1) (B2) (A1) (B1) (B2)
                 (A2) (B2) (B1) (B2) (A2) (A1) (B1) (A2) (A1) (B2)
                 (B1) (B2) (A1) (A1) (A2) (B1) (B2) (A2) (B2) (A1)
                 (A1) (B2) (B2) (B1) (A1) (A2) (A1) (A1) (B2) (A2)
                 (B1) (B2) (A1) (B1) (B1) (A1) (B2) (A1) (A2) (A2)
                 (B1) (B2) (B2) (B1) (A2) (A2) (A1) (B1) (A1) (B2)
                 (B1) (A1) (A2) (A1) (B2) (B2) (A2) (A1) (B2) (B1)
                 (B2) (A1) (A1) (B2) (B2) (A1) (A1) (B1) (A2) (B1)
                 (A2) (B2) (A1) (B2) (A1) (B2) (A1) (A1) (B2) (A1)
                 (B2) (A1) (B2) (B2) (A1) (A1) (A1) (B2)
 The electronic state of the initial guess is 1-A1.
 Leave Link  401 at Thu Feb 26 00:15:16 2015, MaxMem= 1073741824 cpu:      11.2
 (Enter /apps/gaussian/g09_c01/g09/l502.exe)
 Closed shell SCF:
 Requested convergence on RMS density matrix=1.00D-08 within 128 cycles.
 Requested convergence on MAX density matrix=1.00D-06.
 Requested convergence on             energy=1.00D-06.
 No special actions if energy rises.
 Using DIIS extrapolation, IDIIS=  1040.
 Integral symmetry usage will be decided dynamically.
       190305 words used for storage of precomputed grid.
 IEnd=     1262487 IEndB=     1262487 NGot=  1073741824 MDV=  1072844668
 LenX=  1072844668 LenY=  1072495978
 Fock matrices will be formed incrementally for  20 cycles.

 Cycle   1  Pass 1  IDiag  1:
 FoFJK:  IHMeth= 1 ICntrl=     0 DoSepK=T KAlg= 1 I1Cent= 0 FoldK=F
 FoFCou: FMM=F IPFlag=           0 FMFlag=      100000 FMFlg1=           0
         NFxFlg=           0 DoJE=T BraDBF=F KetDBF=F FulRan=T
         Omega=  0.000000  0.000000  1.000000  0.000000  0.000000 ICntrl=     500 IOpCl=  0
         NMat0=    1 NMatS0=    1 NMatT0=    0 NMatD0=    1 NMtDS0=    0 NMtDT0=    0
         I1Cent=           0 NGrid=           0.
 Petite list used in FoFCou.
 E= -150.345246884097    
 DIIS: error= 2.65D-02 at cycle   1 NSaved=   1.
 NSaved= 1 IEnMin= 1 EnMin= -150.345246884097     IErMin= 1 ErrMin= 2.65D-02
 ErrMax= 2.65D-02 EMaxC= 1.00D-01 BMatC= 2.53D-01 BMatP= 2.53D-01
 IDIUse=3 WtCom= 7.35D-01 WtEn= 2.65D-01
 Coeff-Com:  0.100D+01
 Coeff-En:   0.100D+01
 Coeff:      0.100D+01
 Gap=     0.431 Goal=   None    Shift=    0.000
 GapD=    0.431 DampG=2.000 DampE=0.500 DampFc=1.0000 IDamp=-1.
 RMSDP=5.58D-04 MaxDP=4.66D-02              OVMax= 7.01D-02

 Cycle   2  Pass 1  IDiag  1:
 RMSU=  3.86D-04    CP:  9.65D-01
 FoFJK:  IHMeth= 1 ICntrl=     0 DoSepK=T KAlg= 1 I1Cent= 0 FoldK=F
 E= -150.376232656770     Delta-E=       -0.030985772673 Rises=F Damp=F
 DIIS: error= 8.24D-03 at cycle   2 NSaved=   2.
 NSaved= 2 IEnMin= 2 EnMin= -150.376232656770     IErMin= 2 ErrMin= 8.24D-03
 ErrMax= 8.24D-03 EMaxC= 1.00D-01 BMatC= 1.13D-02 BMatP= 2.53D-01
 IDIUse=3 WtCom= 9.18D-01 WtEn= 8.24D-02
 Coeff-Com:  0.120D+00 0.880D+00
 Coeff-En:   0.000D+00 0.100D+01
 Coeff:      0.110D+00 0.890D+00
 Gap=     0.392 Goal=   None    Shift=    0.000
 RMSDP=1.63D-04 MaxDP=1.06D-02 DE=-3.10D-02 OVMax= 3.06D-02

 Cycle   3  Pass 1  IDiag  1:
 RMSU=  1.07D-04    CP:  9.61D-01  8.95D-01
 FoFJK:  IHMeth= 1 ICntrl=     0 DoSepK=T KAlg= 1 I1Cent= 0 FoldK=F
 E= -150.381173849696     Delta-E=       -0.004941192926 Rises=F Damp=F
 DIIS: error= 5.11D-03 at cycle   3 NSaved=   3.
 NSaved= 3 IEnMin= 3 EnMin= -150.381173849696     IErMin= 3 ErrMin= 5.11D-03
 ErrMax= 5.11D-03 EMaxC= 1.00D-01 BMatC= 3.92D-03 BMatP= 1.13D-02
 IDIUse=3 WtCom= 9.49D-01 WtEn= 5.11D-02
 Coeff-Com:  0.186D-01 0.385D+00 0.597D+00
 Coeff-En:   0.000D+00 0.245D+00 0.755D+00
 Coeff:      0.176D-01 0.378D+00 0.605D+00
 Gap=     0.390 Goal=   None    Shift=    0.000
 RMSDP=6.53D-05 MaxDP=3.66D-03 DE=-4.94D-03 OVMax= 1.33D-02

 Cycle   4  Pass 1  IDiag  1:
 RMSU=  1.97D-05    CP:  9.64D-01  9.51D-01  6.73D-01
 FoFJK:  IHMeth= 1 ICntrl=     0 DoSepK=T KAlg= 1 I1Cent= 0 FoldK=F
 E= -150.384443529562     Delta-E=       -0.003269679865 Rises=F Damp=F
 DIIS: error= 3.24D-04 at cycle   4 NSaved=   4.
 NSaved= 4 IEnMin= 4 EnMin= -150.384443529562     IErMin= 4 ErrMin= 3.24D-04
 ErrMax= 3.24D-04 EMaxC= 1.00D-01 BMatC= 1.90D-05 BMatP= 3.92D-03
 IDIUse=3 WtCom= 9.97D-01 WtEn= 3.24D-03
 Coeff-Com:  0.201D-03 0.228D-01 0.830D-01 0.894D+00
 Coeff-En:   0.000D+00 0.000D+00 0.000D+00 0.100D+01
 Coeff:      0.200D-03 0.228D-01 0.827D-01 0.894D+00
 Gap=     0.389 Goal=   None    Shift=    0.000
 RMSDP=7.67D-06 MaxDP=7.21D-04 DE=-3.27D-03 OVMax= 1.13D-03

 Cycle   5  Pass 1  IDiag  1:
 RMSU=  3.47D-06    CP:  9.65D-01  9.53D-01  6.98D-01  1.15D+00
 FoFJK:  IHMeth= 1 ICntrl=     0 DoSepK=T KAlg= 1 I1Cent= 0 FoldK=F
 E= -150.384456549559     Delta-E=       -0.000013019998 Rises=F Damp=F
 DIIS: error= 1.79D-04 at cycle   5 NSaved=   5.
 NSaved= 5 IEnMin= 5 EnMin= -150.384456549559     IErMin= 5 ErrMin= 1.79D-04
 ErrMax= 1.79D-04 EMaxC= 1.00D-01 BMatC= 4.55D-06 BMatP= 1.90D-05
 IDIUse=3 WtCom= 9.98D-01 WtEn= 1.79D-03
 Coeff-Com: -0.132D-02-0.189D-01-0.664D-02 0.411D+00 0.615D+00
 Coeff-En:   0.000D+00 0.000D+00 0.000D+00 0.000D+00 0.100D+01
 Coeff:     -0.132D-02-0.189D-01-0.662D-02 0.411D+00 0.616D+00
 Gap=     0.389 Goal=   None    Shift=    0.000
 RMSDP=2.76D-06 MaxDP=2.97D-04 DE=-1.30D-05 OVMax= 1.00D-03

 Cycle   6  Pass 1  IDiag  1:
 RMSU=  1.00D-06    CP:  9.65D-01  9.54D-01  7.06D-01  1.21D+00  7.63D-01
 FoFJK:  IHMeth= 1 ICntrl=     0 DoSepK=T KAlg= 1 I1Cent= 0 FoldK=F
 E= -150.384460328369     Delta-E=       -0.000003778809 Rises=F Damp=F
 DIIS: error= 3.28D-05 at cycle   6 NSaved=   6.
 NSaved= 6 IEnMin= 6 EnMin= -150.384460328369     IErMin= 6 ErrMin= 3.28D-05
 ErrMax= 3.28D-05 EMaxC= 1.00D-01 BMatC= 1.65D-07 BMatP= 4.55D-06
 IDIUse=1 WtCom= 1.00D+00 WtEn= 0.00D+00
 Coeff-Com: -0.256D-03-0.583D-02-0.950D-02-0.474D-02 0.150D+00 0.870D+00
 Coeff:     -0.256D-03-0.583D-02-0.950D-02-0.474D-02 0.150D+00 0.870D+00
 Gap=     0.389 Goal=   None    Shift=    0.000
 RMSDP=6.82D-07 MaxDP=6.52D-05 DE=-3.78D-06 OVMax= 1.12D-04

 Cycle   7  Pass 1  IDiag  1:
 RMSU=  1.91D-07    CP:  9.65D-01  9.54D-01  7.06D-01  1.23D+00  8.32D-01
                    CP:  9.90D-01
 FoFJK:  IHMeth= 1 ICntrl=     0 DoSepK=T KAlg= 1 I1Cent= 0 FoldK=F
 E= -150.384460484474     Delta-E=       -0.000000156106 Rises=F Damp=F
 DIIS: error= 5.73D-06 at cycle   7 NSaved=   7.
 NSaved= 7 IEnMin= 7 EnMin= -150.384460484474     IErMin= 7 ErrMin= 5.73D-06
 ErrMax= 5.73D-06 EMaxC= 1.00D-01 BMatC= 2.32D-09 BMatP= 1.65D-07
 IDIUse=1 WtCom= 1.00D+00 WtEn= 0.00D+00
 Coeff-Com:  0.305D-04 0.235D-03-0.852D-03-0.164D-01-0.393D-02 0.671D-01
 Coeff-Com:  0.954D+00
 Coeff:      0.305D-04 0.235D-03-0.852D-03-0.164D-01-0.393D-02 0.671D-01
 Coeff:      0.954D+00
 Gap=     0.389 Goal=   None    Shift=    0.000
 RMSDP=9.47D-08 MaxDP=5.58D-06 DE=-1.56D-07 OVMax= 3.33D-05

 Cycle   8  Pass 1  IDiag  1:
 RMSU=  4.31D-08    CP:  9.65D-01  9.54D-01  7.06D-01  1.23D+00  8.38D-01
                    CP:  1.01D+00  1.13D+00
 FoFJK:  IHMeth= 1 ICntrl=     0 DoSepK=T KAlg= 1 I1Cent= 0 FoldK=F
 E= -150.384460487999     Delta-E=       -0.000000003525 Rises=F Damp=F
 DIIS: error= 1.25D-06 at cycle   8 NSaved=   8.
 NSaved= 8 IEnMin= 8 EnMin= -150.384460487999     IErMin= 8 ErrMin= 1.25D-06
 ErrMax= 1.25D-06 EMaxC= 1.00D-01 BMatC= 1.60D-10 BMatP= 2.32D-09
 IDIUse=1 WtCom= 1.00D+00 WtEn= 0.00D+00
 Coeff-Com:  0.128D-04 0.271D-03 0.286D-03-0.199D-02-0.489D-02-0.334D-01
 Coeff-Com:  0.123D+00 0.917D+00
 Coeff:      0.128D-04 0.271D-03 0.286D-03-0.199D-02-0.489D-02-0.334D-01
 Coeff:      0.123D+00 0.917D+00
 Gap=     0.389 Goal=   None    Shift=    0.000
 RMSDP=2.43D-08 MaxDP=2.90D-06 DE=-3.52D-09 OVMax= 4.55D-06

 Cycle   9  Pass 1  IDiag  1:
 RMSU=  9.07D-09    CP:  9.65D-01  9.54D-01  7.06D-01  1.23D+00  8.39D-01
                    CP:  1.01D+00  1.18D+00  1.11D+00
 FoFJK:  IHMeth= 1 ICntrl=     0 DoSepK=T KAlg= 1 I1Cent= 0 FoldK=F
 E= -150.384460488186     Delta-E=       -0.000000000187 Rises=F Damp=F
 DIIS: error= 1.63D-07 at cycle   9 NSaved=   9.
 NSaved= 9 IEnMin= 9 EnMin= -150.384460488186     IErMin= 9 ErrMin= 1.63D-07
 ErrMax= 1.63D-07 EMaxC= 1.00D-01 BMatC= 5.28D-12 BMatP= 1.60D-10
 IDIUse=1 WtCom= 1.00D+00 WtEn= 0.00D+00
 Coeff-Com: -0.152D-05-0.116D-04 0.426D-04 0.722D-03 0.556D-03-0.578D-02
 Coeff-Com: -0.363D-01 0.430D-01 0.998D+00
 Coeff:     -0.152D-05-0.116D-04 0.426D-04 0.722D-03 0.556D-03-0.578D-02
 Coeff:     -0.363D-01 0.430D-01 0.998D+00
 Gap=     0.389 Goal=   None    Shift=    0.000
 RMSDP=6.51D-09 MaxDP=8.59D-07 DE=-1.87D-10 OVMax= 1.40D-06

 SCF Done:  E(RCAM-B3LYP) =  -150.384460488     A.U. after    9 cycles
             Convg  =    0.6506D-08             -V/T =  2.0050
 KE= 1.496326326159D+02 PE=-5.029702031406D+02 EE= 1.235290035682D+02
 Leave Link  502 at Thu Feb 26 00:21:36 2015, MaxMem= 1073741824 cpu:    3033.7
 (Enter /apps/gaussian/g09_c01/g09/l801.exe)
 Range of M.O.s used for correlation:     1   470
 NBasis=   470 NAE=    12 NBE=    12 NFC=     0 NFV=     0
 NROrb=    470 NOA=    12 NOB=    12 NVA=   458 NVB=   458

 **** Warning!!: The largest alpha MO coefficient is  0.97890775D+02

 Leave Link  801 at Thu Feb 26 00:21:36 2015, MaxMem= 1073741824 cpu:       0.2
 (Enter /apps/gaussian/g09_c01/g09/l1002.exe)
 Minotr:  Closed shell wavefunction.
          Direct CPHF calculation.
          Differentiating once with respect to electric field.
                with respect to dipole field.
          Electric field/nuclear overlap derivatives assumed to be zero.
          Using symmetry in CPHF.
          Requested convergence is 1.0D-08 RMS, and 1.0D-07 maximum.
          Secondary convergence is 1.0D-12 RMS, and 1.0D-12 maximum.
          NewPWx=F KeepS1=T KeepF1=T KeepIn=T MapXYZ=F SortEE=F KeepMc=T.
          MDV=    1073741756 using IRadAn=       1.
 Generate precomputed XC quadrature information.
          Solving linear equations simultaneously, MaxMat=       0.
          There are     3 degrees of freedom in the 1st order CPHF.  IDoFFX=0.
      3 vectors produced by pass  0 Test12= 1.83D-13 3.33D-08 XBig12= 1.92D+01 3.48D+00.
 AX will form     3 AO Fock derivatives at one time.
 FoFJK:  IHMeth= 1 ICntrl=     0 DoSepK=T KAlg= 1 I1Cent= 0 FoldK=F
 FoFCou: FMM=F IPFlag=           0 FMFlag=      100000 FMFlg1=           0
         NFxFlg=           0 DoJE=T BraDBF=F KetDBF=F FulRan=T
         Omega=  0.000000  0.000000  1.000000  0.000000  0.000000 ICntrl=     500 IOpCl=  0
         NMat0=    3 NMatS0=    3 NMatT0=    0 NMatD0=    3 NMtDS0=    0 NMtDT0=    0
         I1Cent=           0 NGrid=           0.
 Symmetry not used in FoFCou.
      3 vectors produced by pass  1 Test12= 1.83D-13 3.33D-08 XBig12= 3.35D+00 4.99D-01.
 FoFJK:  IHMeth= 1 ICntrl=     0 DoSepK=T KAlg= 1 I1Cent= 0 FoldK=F
      3 vectors produced by pass  2 Test12= 1.83D-13 3.33D-08 XBig12= 5.59D-01 3.04D-01.
 FoFJK:  IHMeth= 1 ICntrl=     0 DoSepK=T KAlg= 1 I1Cent= 0 FoldK=F
      3 vectors produced by pass  3 Test12= 1.83D-13 3.33D-08 XBig12= 2.12D-02 4.35D-02.
 FoFJK:  IHMeth= 1 ICntrl=     0 DoSepK=T KAlg= 1 I1Cent= 0 FoldK=F
      3 vectors produced by pass  4 Test12= 1.83D-13 3.33D-08 XBig12= 7.05D-04 4.77D-03.
 FoFJK:  IHMeth= 1 ICntrl=     0 DoSepK=T KAlg= 1 I1Cent= 0 FoldK=F
      3 vectors produced by pass  5 Test12= 1.83D-13 3.33D-08 XBig12= 1.27D-04 4.79D-03.
 FoFJK:  IHMeth= 1 ICntrl=     0 DoSepK=T KAlg= 1 I1Cent= 0 FoldK=F
      3 vectors produced by pass  6 Test12= 1.83D-13 3.33D-08 XBig12= 3.95D-06 5.57D-04.
 FoFJK:  IHMeth= 1 ICntrl=     0 DoSepK=T KAlg= 1 I1Cent= 0 FoldK=F
      3 vectors produced by pass  7 Test12= 1.83D-13 3.33D-08 XBig12= 1.01D-07 7.10D-05.
 FoFJK:  IHMeth= 1 ICntrl=     0 DoSepK=T KAlg= 1 I1Cent= 0 FoldK=F
      3 vectors produced by pass  8 Test12= 1.83D-13 3.33D-08 XBig12= 1.25D-09 9.71D-06.
 FoFJK:  IHMeth= 1 ICntrl=     0 DoSepK=T KAlg= 1 I1Cent= 0 FoldK=F
      2 vectors produced by pass  9 Test12= 1.83D-13 3.33D-08 XBig12= 1.25D-11 6.65D-07.
 FoFJK:  IHMeth= 1 ICntrl=     0 DoSepK=T KAlg= 1 I1Cent= 0 FoldK=F
      1 vectors produced by pass 10 Test12= 1.83D-13 3.33D-08 XBig12= 1.76D-13 6.58D-08.
 FoFJK:  IHMeth= 1 ICntrl=     0 DoSepK=T KAlg= 1 I1Cent= 0 FoldK=F
 Inverted reduced A of dimension    30 with in-core refinement.
 End of Minotr Frequency-dependent properties file   721 does not exist.
 End of Minotr Frequency-dependent properties file   722 does not exist.
 Leave Link 1002 at Thu Feb 26 00:38:25 2015, MaxMem= 1073741824 cpu:    8049.9
 (Enter /apps/gaussian/g09_c01/g09/l1101.exe)
 Using compressed storage, NAtomX=     8.
 Will process   9 centers per pass.
 Leave Link 1101 at Thu Feb 26 00:38:26 2015, MaxMem= 1073741824 cpu:       5.9
 (Enter /apps/gaussian/g09_c01/g09/l1102.exe)
 Symmetrizing basis deriv contribution to polar:
 IMax=3 JMax=2 DiffMx= 0.00D+00
 Leave Link 1102 at Thu Feb 26 00:38:26 2015, MaxMem= 1073741824 cpu:       0.6
 (Enter /apps/gaussian/g09_c01/g09/l1110.exe)
 Forming Gx(P) for the SCF density, NAtomX=     8.
 Integral derivatives from FoFDir/FoFCou, PRISM(SPDF).
 Do as many integral derivatives as possible in FoFDir.
 G2DrvN: MDV=    1073741656.
 G2DrvN: will do     9 centers at a time, making    1 passes doing MaxLOS=4.
 Calling FoFCou, ICntrl=  3107 FMM=F I1Cent=   0 AccDes= 0.00D+00.
 FoFJK:  IHMeth= 1 ICntrl=  3107 DoSepK=T KAlg= 1 I1Cent= 0 FoldK=F
 FoFCou: FMM=F IPFlag=           0 FMFlag=      100000 FMFlg1=           0
         NFxFlg=           0 DoJE=F BraDBF=F KetDBF=F FulRan=T
         Omega=  0.000000  0.000000  1.000000  0.000000  0.000000 ICntrl=    3507 IOpCl=  0
         NMat0=    1 NMatS0=    1 NMatT0=    0 NMatD0=    4 NMtDS0=    3 NMtDT0=    0
         I1Cent=           0 NGrid=           0.
 Petite list used in FoFCou.
 FoFDir/FoFCou used for L=0 through L=4.
 End of G2Drv Frequency-dependent properties file   721 does not exist.
 End of G2Drv Frequency-dependent properties file   722 does not exist.
 Leave Link 1110 at Thu Feb 26 00:49:14 2015, MaxMem= 1073741824 cpu:    5168.5
 (Enter /apps/gaussian/g09_c01/g09/l1002.exe)
 Minotr:  Closed shell wavefunction.
          IDoAtm=11111111
          Direct CPHF calculation.
          Differentiating once with respect to electric field.
                with respect to dipole field.
          Differentiating once with respect to nuclear coordinates.
          Using symmetry in CPHF.
          Requested convergence is 1.0D-08 RMS, and 1.0D-07 maximum.
          Secondary convergence is 1.0D-12 RMS, and 1.0D-12 maximum.
          NewPWx=T KeepS1=F KeepF1=F KeepIn=T MapXYZ=F SortEE=F KeepMc=T.
          MDV=    1073741740 using IRadAn=       1.
 Generate precomputed XC quadrature information.
          Solving linear equations simultaneously, MaxMat=       0.
 FoFJK:  IHMeth= 1 ICntrl=     0 DoSepK=T KAlg= 1 I1Cent= 0 FoldK=F
 FoFCou: FMM=F IPFlag=           0 FMFlag=      100000 FMFlg1=           0
         NFxFlg=           0 DoJE=F BraDBF=F KetDBF=F FulRan=T
         Omega=  0.000000  0.000000  1.000000  0.000000  0.000000 ICntrl=     500 IOpCl=  0
         NMat0=   18 NMatS0=   18 NMatT0=    0 NMatD0=   18 NMtDS0=    0 NMtDT0=    0
         I1Cent=           0 NGrid=           0.
 Integrals replicated using symmetry in FoFCou.
          There are    18 degrees of freedom in the 1st order CPHF.  IDoFFX=4.
 Will reuse    3 saved solutions.
     15 vectors produced by pass  0 Test12= 3.05D-14 5.56D-09 XBig12= 1.01D-01 9.44D-02.
 AX will form    15 AO Fock derivatives at one time.
 FoFJK:  IHMeth= 1 ICntrl=     0 DoSepK=T KAlg= 1 I1Cent= 0 FoldK=F
     15 vectors produced by pass  1 Test12= 3.05D-14 5.56D-09 XBig12= 2.38D-02 9.41D-02.
 FoFJK:  IHMeth= 1 ICntrl=     0 DoSepK=T KAlg= 1 I1Cent= 0 FoldK=F
     15 vectors produced by pass  2 Test12= 3.05D-14 5.56D-09 XBig12= 1.11D-03 6.22D-03.
 FoFJK:  IHMeth= 1 ICntrl=     0 DoSepK=T KAlg= 1 I1Cent= 0 FoldK=F
     15 vectors produced by pass  3 Test12= 3.05D-14 5.56D-09 XBig12= 1.42D-05 5.99D-04.
 FoFJK:  IHMeth= 1 ICntrl=     0 DoSepK=T KAlg= 1 I1Cent= 0 FoldK=F
     15 vectors produced by pass  4 Test12= 3.05D-14 5.56D-09 XBig12= 1.03D-07 6.26D-05.
 FoFJK:  IHMeth= 1 ICntrl=     0 DoSepK=T KAlg= 1 I1Cent= 0 FoldK=F
     15 vectors produced by pass  5 Test12= 3.05D-14 5.56D-09 XBig12= 5.69D-10 5.39D-06.
 FoFJK:  IHMeth= 1 ICntrl=     0 DoSepK=T KAlg= 1 I1Cent= 0 FoldK=F
     12 vectors produced by pass  6 Test12= 3.05D-14 5.56D-09 XBig12= 2.15D-12 2.60D-07.
 FoFJK:  IHMeth= 1 ICntrl=     0 DoSepK=T KAlg= 1 I1Cent= 0 FoldK=F
      2 vectors produced by pass  7 Test12= 3.05D-14 5.56D-09 XBig12= 8.28D-15 1.34D-08.
 FoFJK:  IHMeth= 1 ICntrl=     0 DoSepK=T KAlg= 1 I1Cent= 0 FoldK=F
 Inverted reduced A of dimension   104 with in-core refinement.
 FullF1:  Do perturbations    1 to    18.
 FoFJK:  IHMeth= 1 ICntrl=     0 DoSepK=T KAlg= 1 I1Cent= 0 FoldK=F
 Isotropic polarizability for W=    0.000000       26.97 Bohr**3.
 FoFJK:  IHMeth= 1 ICntrl=     0 DoSepK=T KAlg= 1 I1Cent= 0 FoldK=F
 FullF1:  Do perturbations    1 to     6.
 FoFJK:  IHMeth= 1 ICntrl=     0 DoSepK=T KAlg= 1 I1Cent= 0 FoldK=F
 End of Minotr Frequency-dependent properties file   721 does not exist.
 End of Minotr Frequency-dependent properties file   722 does not exist.
 Leave Link 1002 at Thu Feb 26 01:27:38 2015, MaxMem= 1073741824 cpu:   18386.0
 (Enter /apps/gaussian/g09_c01/g09/l601.exe)
 Copying SCF densities to generalized density rwf, IOpCl= 0 IROHF=0.

 **********************************************************************

            Population analysis using the SCF density.

 **********************************************************************

 Orbital symmetries:
       Occupied  (B2) (A1) (A1) (A1) (B2) (A1) (A1) (B2) (B2) (A1)
                 (B1) (A2)
       Virtual   (B1) (A1) (A1) (B2) (B1) (A1) (B2) (A1) (A1) (B2)
                 (A2) (A1) (B1) (A1) (B2) (B2) (A1) (B2) (B1) (A1)
                 (A2) (A1) (B2) (B1) (B2) (A1) (B1) (A1) (A1) (A2)
                 (A1) (B2) (A1) (B2) (B1) (A2) (B2) (A1) (B2) (A1)
                 (A1) (B1) (B2) (B2) (A1) (B1) (A2) (B2) (B1) (A1)
                 (B2) (A2) (A1) (B2) (A1) (A1) (B2) (B1) (A1) (B2)
                 (A1) (A2) (A1) (B1) (A2) (B2) (A1) (B1) (A1) (B2)
                 (B1) (B1) (A2) (B2) (A1) (B2) (A1) (B2) (A2) (A1)
                 (A1) (B1) (A2) (A1) (B1) (B2) (B2) (A2) (A1) (A2)
                 (B2) (B1) (B2) (A1) (B2) (A1) (A2) (B2) (A1) (A1)
                 (B1) (A1) (B1) (B2) (B2) (A1) (A2) (A1) (B2) (B1)
                 (B2) (B1) (A1) (A2) (A1) (A1) (B1) (B2) (A2) (B1)
                 (A1) (B2) (A1) (B2) (A1) (B1) (B2) (A2) (A1) (B2)
                 (A2) (A1) (B2) (B1) (B1) (B2) (A1) (A2) (B2) (A1)
                 (B1) (A2) (A1) (B1) (B2) (B2) (A1) (A2) (B1) (B2)
                 (A1) (A2) (B2) (A1) (B1) (A1) (B2) (A1) (A2) (B2)
                 (A1) (A1) (B1) (A2) (B2) (B1) (A1) (A1) (B1) (B2)
                 (A1) (B1) (B2) (A2) (A2) (B1) (B2) (A1) (A2) (B2)
                 (A1) (B1) (A1) (B1) (B2) (A2) (A1) (B2) (A1) (B2)
                 (A1) (A2) (B2) (B1) (B2) (A2) (B2) (A1) (B1) (A2)
                 (A1) (B1) (B2) (A1) (A1) (A2) (B1) (B2) (B2) (A1)
                 (B1) (B2) (A2) (B1) (A1) (A1) (B2) (A1) (A2) (B2)
                 (B1) (B2) (A2) (B1) (B2) (A1) (A1) (A1) (B2) (A2)
                 (A1) (B1) (A2) (A1) (B2) (B1) (B2) (A1) (A2) (B2)
                 (A1) (A1) (B2) (B1) (B2) (A1) (A2) (B2) (B1) (B2)
                 (A1) (A1) (A2) (B1) (A2) (B2) (A1) (B1) (A1) (B2)
                 (A1) (B1) (A2) (A1) (B2) (A2) (A1) (B2) (B1) (A1)
                 (B2) (A2) (B1) (A1) (B2) (A1) (A2) (B2) (B1) (A1)
                 (B2) (A1) (B2) (A2) (B2) (B1) (A1) (B1) (A1) (B2)
                 (A2) (B2) (B1) (A2) (A1) (B2) (A1) (A1) (B2) (A1)
                 (B2) (A1) (B2) (A2) (B1) (B1) (A1) (B1) (B2) (B1)
                 (A1) (A2) (B2) (A1) (B1) (A2) (B1) (A1) (A2) (B2)
                 (A1) (B2) (B1) (A1) (B2) (A2) (B2) (A1) (A1) (B1)
                 (A2) (B1) (B2) (B1) (B2) (A1) (B2) (A2) (B1) (A1)
                 (A1) (A2) (B2) (A2) (A1) (B2) (A2) (A1) (B1) (B1)
                 (B2) (A1) (A2) (B1) (A1) (A2) (B2) (A1) (B1) (B1)
                 (A2) (B2) (A1) (B2) (A1) (A1) (B2) (A1) (B2) (B1)
                 (A2) (B2) (B1) (B2) (A2) (A1) (B1) (A2) (A1) (B2)
                 (B1) (B2) (A1) (A1) (B1) (A2) (B2) (A2) (B2) (A1)
                 (A1) (B2) (B2) (A1) (B1) (A2) (A1) (A1) (B2) (A2)
                 (B1) (B2) (A1) (B1) (B1) (A1) (B2) (A1) (A2) (A2)
                 (B1) (B2) (B2) (B1) (A2) (A2) (A1) (B1) (A1) (B2)
                 (B1) (A1) (A2) (A1) (B2) (B2) (A2) (A1) (B2) (B1)
                 (B2) (A1) (A1) (B2) (B2) (A1) (A1) (B1) (A2) (B1)
                 (A2) (B2) (A1) (B2) (A1) (B2) (A1) (A1) (B2) (A1)
                 (B2) (A1) (B2) (B2) (A1) (A1) (A1) (B2)
 The electronic state is 1-A1.
 Alpha  occ. eigenvalues --  -14.65924 -14.65923 -10.59409  -1.30257  -1.21455
 Alpha  occ. eigenvalues --   -0.97217  -0.89121  -0.86401  -0.79424  -0.73406
 Alpha  occ. eigenvalues --   -0.71409  -0.57928
 Alpha virt. eigenvalues --   -0.18993  -0.15051  -0.12617  -0.12284  -0.08724
 Alpha virt. eigenvalues --   -0.07862  -0.07690  -0.06253  -0.04979  -0.04573
 Alpha virt. eigenvalues --   -0.04145  -0.03427  -0.03379  -0.01649  -0.01611
 Alpha virt. eigenvalues --   -0.00354  -0.00048   0.01736   0.01810   0.03465
 Alpha virt. eigenvalues --    0.04541   0.05469   0.06285   0.06533   0.07626
 Alpha virt. eigenvalues --    0.08090   0.10343   0.10348   0.10773   0.11883
 Alpha virt. eigenvalues --    0.12131   0.12716   0.12868   0.13100   0.13747
 Alpha virt. eigenvalues --    0.15212   0.16622   0.16708   0.17967   0.19164
 Alpha virt. eigenvalues --    0.20192   0.20850   0.20920   0.21455   0.23089
 Alpha virt. eigenvalues --    0.25278   0.25557   0.26946   0.27329   0.28302
 Alpha virt. eigenvalues --    0.29384   0.30787   0.32017   0.32282   0.33550
 Alpha virt. eigenvalues --    0.35524   0.37919   0.39272   0.41485   0.42192
 Alpha virt. eigenvalues --    0.43677   0.44088   0.45616   0.45778   0.46381
 Alpha virt. eigenvalues --    0.46483   0.47171   0.49479   0.49563   0.50879
 Alpha virt. eigenvalues --    0.51928   0.52441   0.53180   0.53964   0.54704
 Alpha virt. eigenvalues --    0.54902   0.55244   0.56180   0.57566   0.57568
 Alpha virt. eigenvalues --    0.58568   0.59109   0.64092   0.65214   0.65735
 Alpha virt. eigenvalues --    0.65879   0.66982   0.67916   0.68543   0.70005
 Alpha virt. eigenvalues --    0.72476   0.73004   0.73594   0.73881   0.75764
 Alpha virt. eigenvalues --    0.76437   0.77880   0.78142   0.78698   0.78776
 Alpha virt. eigenvalues --    0.85171   0.86240   0.86245   0.86384   0.88494
 Alpha virt. eigenvalues --    0.89237   0.93197   0.96963   0.98072   0.98276
 Alpha virt. eigenvalues --    0.99685   1.02786   1.04385   1.07444   1.08466
 Alpha virt. eigenvalues --    1.11814   1.12014   1.13124   1.17810   1.19253
 Alpha virt. eigenvalues --    1.19565   1.19652   1.21235   1.22307   1.23008
 Alpha virt. eigenvalues --    1.23889   1.25836   1.27603   1.28640   1.31551
 Alpha virt. eigenvalues --    1.32492   1.34705   1.35802   1.37137   1.37840
 Alpha virt. eigenvalues --    1.38905   1.40064   1.44662   1.45948   1.46545
 Alpha virt. eigenvalues --    1.48572   1.49434   1.50314   1.51325   1.52063
 Alpha virt. eigenvalues --    1.54344   1.55009   1.56634   1.57292   1.57567
 Alpha virt. eigenvalues --    1.57810   1.63004   1.64950   1.65729   1.67152
 Alpha virt. eigenvalues --    1.67602   1.70207   1.70546   1.72157   1.73352
 Alpha virt. eigenvalues --    1.74803   1.77541   1.77676   1.79156   1.80442
 Alpha virt. eigenvalues --    1.81916   1.84158   1.85143   1.86541   1.87253
 Alpha virt. eigenvalues --    1.88508   1.89177   1.90195   1.91634   1.92531
 Alpha virt. eigenvalues --    1.94221   1.94953   1.95647   1.95787   1.99946
 Alpha virt. eigenvalues --    2.00209   2.02400   2.08560   2.08838   2.10110
 Alpha virt. eigenvalues --    2.12273   2.19532   2.20045   2.21201   2.23438
 Alpha virt. eigenvalues --    2.26162   2.27911   2.28505   2.29808   2.33135
 Alpha virt. eigenvalues --    2.33951   2.37330   2.38014   2.39832   2.41235
 Alpha virt. eigenvalues --    2.41583   2.47044   2.47316   2.47866   2.51997
 Alpha virt. eigenvalues --    2.54982   2.55021   2.55180   2.55893   2.58254
 Alpha virt. eigenvalues --    2.59378   2.64241   2.64807   2.65420   2.65719
 Alpha virt. eigenvalues --    2.70939   2.72875   2.76878   2.78377   2.80646
 Alpha virt. eigenvalues --    2.82572   2.83113   2.85185   2.86282   2.87375
 Alpha virt. eigenvalues --    2.88095   2.90680   2.95167   2.95428   2.95575
 Alpha virt. eigenvalues --    3.01037   3.01092   3.02417   3.06768   3.07433
 Alpha virt. eigenvalues --    3.09288   3.12672   3.14296   3.15114   3.17430
 Alpha virt. eigenvalues --    3.20610   3.26457   3.30657   3.31041   3.36913
 Alpha virt. eigenvalues --    3.38746   3.42232   3.45484   3.52760   3.56061
 Alpha virt. eigenvalues --    3.59325   3.60838   3.61046   3.63910   3.65988
 Alpha virt. eigenvalues --    3.66144   3.67286   3.72516   3.80380   3.82840
 Alpha virt. eigenvalues --    3.84783   3.85927   3.90128   3.90261   3.93096
 Alpha virt. eigenvalues --    3.97154   4.02564   4.02749   4.03904   4.06458
 Alpha virt. eigenvalues --    4.11950   4.15485   4.16828   4.17408   4.25375
 Alpha virt. eigenvalues --    4.31018   4.32224   4.34884   4.35157   4.37391
 Alpha virt. eigenvalues --    4.39727   4.43157   4.46379   4.53473   4.54498
 Alpha virt. eigenvalues --    4.58287   4.61944   4.75478   4.78290   4.86007
 Alpha virt. eigenvalues --    4.86091   4.91791   4.93156   4.99878   5.02793
 Alpha virt. eigenvalues --    5.11581   5.15111   5.16814   5.20404   5.36125
 Alpha virt. eigenvalues --    5.46604   5.59023   5.66554   5.68875   5.70273
 Alpha virt. eigenvalues --    5.79612   5.85930   5.87703   6.14864   6.15460
 Alpha virt. eigenvalues --    6.16260   6.17203   6.23120   6.23854   6.29091
 Alpha virt. eigenvalues --    6.31147   6.48523   6.52152   6.53108   6.54689
 Alpha virt. eigenvalues --    6.56598   6.60487   6.69128   6.71589   6.74091
 Alpha virt. eigenvalues --    6.75370   6.76612   6.78025   6.84538   6.84776
 Alpha virt. eigenvalues --    6.98010   7.01549   7.04994   7.10593   7.12377
 Alpha virt. eigenvalues --    7.16174   7.17890   7.18697   7.20366   7.21420
 Alpha virt. eigenvalues --    7.30020   7.38644   7.40220   7.41513   7.42122
 Alpha virt. eigenvalues --    7.47724   7.48944   7.51937   7.55173   7.60396
 Alpha virt. eigenvalues --    7.65688   7.71504   7.71739   7.86518   7.88752
 Alpha virt. eigenvalues --    7.94946   7.97223   7.98180   7.98232   8.01841
 Alpha virt. eigenvalues --    8.01956   8.05507   8.07718   8.10587   8.13329
 Alpha virt. eigenvalues --    8.17021   8.18513   8.20125   8.24224   8.24306
 Alpha virt. eigenvalues --    8.28797   8.31546   8.32595   8.39247   8.41294
 Alpha virt. eigenvalues --    8.42999   8.43529   8.45418   8.47758   8.58223
 Alpha virt. eigenvalues --    8.63371   8.64736   8.66393   8.69630   8.73997
 Alpha virt. eigenvalues --    8.74085   8.74770   8.76642   8.80600   8.81541
 Alpha virt. eigenvalues --    8.87457   8.92991   9.02130   9.02337   9.02827
 Alpha virt. eigenvalues --    9.05823   9.10583   9.13161   9.14189   9.16108
 Alpha virt. eigenvalues --    9.29118   9.30867   9.31818   9.34665   9.37247
 Alpha virt. eigenvalues --    9.38255   9.42014   9.43250   9.46153   9.52391
 Alpha virt. eigenvalues --    9.54036   9.59709   9.70686   9.71576   9.76492
 Alpha virt. eigenvalues --    9.78043   9.78750   9.81308   9.87968   9.89959
 Alpha virt. eigenvalues --    9.94098   9.94729  10.06470  10.07674  10.08677
 Alpha virt. eigenvalues --   10.30445  10.35705  10.40262  10.46296  10.52568
 Alpha virt. eigenvalues --   10.55804  10.89785  11.03664  11.21647  11.34069
 Alpha virt. eigenvalues --   11.34835  11.41509  11.47333  11.48656  11.59724
 Alpha virt. eigenvalues --   11.60374  11.72431  11.91163  11.97169  12.14582
 Alpha virt. eigenvalues --   12.48013  12.51120  12.60195  12.63370  12.94032
 Alpha virt. eigenvalues --   13.07039  14.17900  14.26575  14.50221  14.51071
 Alpha virt. eigenvalues --   25.67273  34.14509  34.25669
          Condensed to atoms (all electrons):
              1          2          3          4          5          6
     1  C    4.818109   0.295147   0.423571  -0.030894   0.002837   0.423571
     2  H    0.295147   0.215584  -0.041015  -0.000970  -0.001209  -0.041015
     3  N    0.423571  -0.041015   6.410465   0.398381   0.355563  -0.065365
     4  H   -0.030894  -0.000970   0.398381   0.371875  -0.039320   0.010421
     5  H    0.002837  -0.001209   0.355563  -0.039320   0.337149  -0.012193
     6  N    0.423571  -0.041015  -0.065365   0.010421  -0.012193   6.410465
     7  H    0.002837  -0.001209  -0.012193  -0.000026   0.004252   0.355563
     8  H   -0.030894  -0.000970   0.010421  -0.000658  -0.000026   0.398381
              7          8
     1  C    0.002837  -0.030894
     2  H   -0.001209  -0.000970
     3  N   -0.012193   0.010421
     4  H   -0.000026  -0.000658
     5  H    0.004252  -0.000026
     6  N    0.355563   0.398381
     7  H    0.337149  -0.039320
     8  H   -0.039320   0.371875
 Mulliken atomic charges:
              1
     1  C    0.095715
     2  H    0.575659
     3  N   -0.479826
     4  H    0.291192
     5  H    0.352948
     6  N   -0.479826
     7  H    0.352948
     8  H    0.291192
 Sum of Mulliken atomic charges =   1.00000
 Mulliken charges with hydrogens summed into heavy atoms:
              1
     1  C    0.671374
     3  N    0.164313
     6  N    0.164313
 Sum of Mulliken charges with hydrogens summed into heavy atoms =   1.00000
 APT atomic charges:
              1
     1  C    0.912515
     2  H    0.132406
     3  N   -0.617871
     4  H    0.315316
     5  H    0.280094
     6  N   -0.617871
     7  H    0.280094
     8  H    0.315316
 Sum of APT charges=   1.00000
 APT Atomic charges with hydrogens summed into heavy atoms:
              1
     1  C    1.044922
     2  H    0.000000
     3  N   -0.022461
     4  H    0.000000
     5  H    0.000000
     6  N   -0.022461
     7  H    0.000000
     8  H    0.000000
 Sum of APT charges=   1.00000
 Electronic spatial extent (au):  <R**2>=            159.0806
 Charge=              1.0000 electrons
 Dipole moment (field-independent basis, Debye):
    X=              0.0000    Y=              0.0000    Z=             -0.1792  Tot=              0.1792
 Quadrupole moment (field-independent basis, Debye-Ang):
   XX=            -19.2641   YY=             -4.5635   ZZ=            -10.3676
   XY=              0.0000   XZ=              0.0000   YZ=              0.0000
 Traceless Quadrupole moment (field-independent basis, Debye-Ang):
   XX=             -7.8657   YY=              6.8349   ZZ=              1.0308
   XY=              0.0000   XZ=              0.0000   YZ=              0.0000
 Octapole moment (field-independent basis, Debye-Ang**2):
  XXX=              0.0000  YYY=              0.0000  ZZZ=             -3.2024  XYY=              0.0000
  XXY=              0.0000  XXZ=             -0.0364  XZZ=              0.0000  YZZ=              0.0000
  YYZ=             -0.0587  XYZ=              0.0000
 Hexadecapole moment (field-independent basis, Debye-Ang**3):
 XXXX=            -18.0220 YYYY=            -72.5052 ZZZZ=            -23.9164 XXXY=              0.0000
 XXXZ=              0.0000 YYYX=              0.0000 YYYZ=              0.0000 ZZZX=              0.0000
 ZZZY=              0.0000 XXYY=            -27.9128 XXZZ=             -9.7406 YYZZ=            -18.3008
 XXYZ=              0.0000 YYXZ=              0.0000 ZZXY=              0.0000
 N-N= 7.942410646830D+01 E-N=-5.029701922142D+02  KE= 1.496326326159D+02
 Symmetry A1   KE= 8.864044652565D+01
 Symmetry A2   KE= 3.547101134905D+00
 Symmetry B1   KE= 2.781572915875D+00
 Symmetry B2   KE= 5.466351203947D+01
  Exact polarizability:  18.328   0.000  37.543   0.000   0.000  25.033
 Approx polarizability:  21.105   0.000  41.794   0.000   0.000  29.001
 No NMR shielding tensors so no spin-rotation constants.
 Leave Link  601 at Thu Feb 26 01:27:40 2015, MaxMem= 1073741824 cpu:       9.2
 (Enter /apps/gaussian/g09_c01/g09/l701.exe)
 Compute integral second derivatives.
 ... and contract with generalized density number  0.
 Leave Link  701 at Thu Feb 26 01:27:40 2015, MaxMem= 1073741824 cpu:       6.4
 (Enter /apps/gaussian/g09_c01/g09/l702.exe)
 L702 exits ... SP integral derivatives will be done elsewhere.
 Leave Link  702 at Thu Feb 26 01:27:40 2015, MaxMem= 1073741824 cpu:       0.1
 (Enter /apps/gaussian/g09_c01/g09/l703.exe)
 Compute integral second derivatives, UseDBF=F ICtDFT=           0.
 Integral derivatives from FoFDir, PRISM(SPDF).
 Calling FoFJK, ICntrl=    100127 FMM=F ISym2X=1 I1Cent= 0 IOpClX= 0 NMat=1 NMatS=1 NMatT=0.
 FoFJK:  IHMeth= 1 ICntrl=100127 DoSepK=T KAlg= 1 I1Cent= 0 FoldK=F
 FoFCou: FMM=F IPFlag=           0 FMFlag=      100000 FMFlg1=         800
         NFxFlg=           0 DoJE=F BraDBF=F KetDBF=F FulRan=T
         Omega=  0.000000  0.000000  1.000000  0.000000  0.000000 ICntrl=  100527 IOpCl=  0
         NMat0=    1 NMatS0=    1 NMatT0=    0 NMatD0=    1 NMtDS0=    0 NMtDT0=    0
         I1Cent=           0 NGrid=           0.
 Petite list used in FoFCou.
 Leave Link  703 at Thu Feb 26 02:06:10 2015, MaxMem= 1073741824 cpu:   18424.7
 (Enter /apps/gaussian/g09_c01/g09/l716.exe)
 Dipole        =-1.18225293D-16-1.16453200D-13-7.04898298D-02
 Polarizability= 1.83276320D+01 1.90710948D-12 3.75428218D+01
                -3.05889300D-12 8.15761885D-13 2.50331236D+01
 HyperPolar    =-2.99458751D-10 3.38537610D-10-2.19288557D-10
                -2.45934336D-10 2.01310721D-01 5.62874231D-12
                 3.12373552D+01-3.70131129D-11-1.33002027D-11
                -5.00805192D+00
 ***** Axes restored to original set *****
 -------------------------------------------------------------------
 Center     Atomic                   Forces (Hartrees/Bohr)
 Number     Number              X              Y              Z
 -------------------------------------------------------------------
      1        6           0.000000000   -0.008196502    0.000000000
      2        1           0.000000000   -0.002931898    0.000000000
      3        7          -0.007213041    0.002436313    0.000000000
      4        1          -0.004837546   -0.002006845    0.000000000
      5        1          -0.001529938    0.005134732    0.000000000
      6        7           0.007213041    0.002436313    0.000000000
      7        1           0.001529938    0.005134732    0.000000000
      8        1           0.004837546   -0.002006845    0.000000000
 -------------------------------------------------------------------
 Cartesian Forces:  Max     0.008196502 RMS     0.003558890
 Force constants in Cartesian coordinates: 
                1             2             3             4             5 
      1  0.891081D+00
      2  0.000000D+00  0.827540D+00
      3  0.000000D+00  0.000000D+00  0.181715D+00
      4 -0.658436D-01  0.000000D+00  0.000000D+00  0.714190D-01
      5  0.000000D+00 -0.340151D+00  0.000000D+00  0.000000D+00  0.354974D+00
      6  0.000000D+00  0.000000D+00 -0.570629D-01  0.000000D+00  0.000000D+00
      7 -0.388530D+00  0.146699D+00  0.000000D+00 -0.387548D-05  0.180593D-02
      8  0.127515D+00 -0.251504D+00  0.000000D+00  0.354273D-01 -0.955726D-02
      9  0.000000D+00  0.000000D+00 -0.580265D-01  0.000000D+00  0.000000D+00
     10 -0.271799D-01 -0.168463D-01  0.000000D+00  0.116815D-02  0.244688D-03
     11  0.161878D-01  0.164256D-01  0.000000D+00  0.920653D-03  0.774859D-03
     12  0.000000D+00  0.000000D+00 -0.559622D-02  0.000000D+00  0.000000D+00
     13  0.309091D-02  0.365364D-01  0.000000D+00 -0.395196D-02  0.937912D-03
     14  0.855226D-02 -0.861670D-02  0.000000D+00  0.854785D-03  0.137091D-02
     15  0.000000D+00  0.000000D+00  0.129644D-02  0.000000D+00  0.000000D+00
     16 -0.388530D+00 -0.146699D+00  0.000000D+00 -0.387815D-05 -0.180592D-02
     17 -0.127515D+00 -0.251504D+00  0.000000D+00 -0.354273D-01 -0.955727D-02
     18  0.000000D+00  0.000000D+00 -0.580265D-01  0.000000D+00  0.000000D+00
     19  0.309091D-02 -0.365364D-01  0.000000D+00 -0.395196D-02 -0.937912D-03
     20 -0.855225D-02 -0.861670D-02  0.000000D+00 -0.854784D-03  0.137092D-02
     21  0.000000D+00  0.000000D+00  0.129644D-02  0.000000D+00  0.000000D+00
     22 -0.271799D-01  0.168463D-01  0.000000D+00  0.116815D-02 -0.244691D-03
     23 -0.161878D-01  0.164256D-01  0.000000D+00 -0.920653D-03  0.774860D-03
     24  0.000000D+00  0.000000D+00 -0.559622D-02  0.000000D+00  0.000000D+00
                6             7             8             9            10 
      6  0.332629D-01
      7  0.000000D+00  0.876100D+00
      8  0.000000D+00 -0.114984D-01  0.841953D+00
      9  0.828169D-02  0.000000D+00  0.000000D+00  0.671053D-01
     10  0.000000D+00 -0.325099D+00 -0.167251D+00  0.000000D+00  0.339123D+00
     11  0.000000D+00 -0.171504D+00 -0.189929D+00  0.000000D+00  0.174759D+00
     12 -0.415827D-02  0.000000D+00  0.000000D+00 -0.133484D-01  0.000000D+00
     13  0.000000D+00 -0.813481D-01  0.285346D-01  0.000000D+00  0.106611D-01
     14  0.000000D+00  0.272249D-01 -0.426475D+00  0.000000D+00  0.454158D-02
     15  0.777661D-02  0.000000D+00  0.000000D+00 -0.195018D-01  0.000000D+00
     16  0.000000D+00 -0.851510D-01 -0.862477D-02  0.000000D+00  0.213925D-02
     17  0.000000D+00  0.862477D-02  0.368468D-01  0.000000D+00  0.520472D-02
     18  0.828169D-02  0.000000D+00  0.000000D+00  0.135298D-01  0.000000D+00
     19  0.000000D+00  0.189214D-02  0.110171D-02  0.000000D+00 -0.120500D-03
     20  0.000000D+00  0.531010D-02  0.245904D-03  0.000000D+00 -0.248215D-03
     21  0.777661D-02  0.000000D+00  0.000000D+00 -0.397551D-02  0.000000D+00
     22  0.000000D+00  0.213925D-02 -0.520472D-02  0.000000D+00 -0.692634D-03
     23  0.000000D+00 -0.666276D-02 -0.158067D-02  0.000000D+00 -0.405386D-03
     24 -0.415827D-02  0.000000D+00  0.000000D+00  0.593546D-02  0.000000D+00
               11            12            13            14            15 
     11  0.182925D+00
     12  0.000000D+00  0.155189D-01
     13 -0.276551D-01  0.000000D+00  0.713529D-01
     14 -0.897795D-02  0.000000D+00 -0.365704D-01  0.442189D+00
     15  0.000000D+00 -0.770743D-03  0.000000D+00  0.000000D+00  0.154716D-01
     16  0.666276D-02  0.000000D+00  0.189214D-02 -0.531010D-02  0.000000D+00
     17 -0.158067D-02  0.000000D+00 -0.110171D-02  0.245904D-03  0.000000D+00
     18  0.000000D+00  0.593546D-02  0.000000D+00  0.000000D+00 -0.397551D-02
     19  0.222971D-03  0.000000D+00 -0.157647D-02  0.458744D-03  0.000000D+00
     20 -0.530156D-03  0.000000D+00 -0.458744D-03  0.794394D-03  0.000000D+00
     21  0.000000D+00 -0.560701D-03  0.000000D+00  0.000000D+00  0.264122D-03
     22  0.405386D-03  0.000000D+00 -0.120500D-03  0.248215D-03  0.000000D+00
     23  0.892184D-03  0.000000D+00 -0.222971D-03 -0.530156D-03  0.000000D+00
     24  0.000000D+00  0.298007D-02  0.000000D+00  0.000000D+00 -0.560701D-03
               16            17            18            19            20 
     16  0.876100D+00
     17  0.114984D-01  0.841953D+00
     18  0.000000D+00  0.000000D+00  0.671053D-01
     19 -0.813481D-01 -0.285346D-01  0.000000D+00  0.713529D-01
     20 -0.272249D-01 -0.426475D+00  0.000000D+00  0.365704D-01  0.442189D+00
     21  0.000000D+00  0.000000D+00 -0.195018D-01  0.000000D+00  0.000000D+00
     22 -0.325099D+00  0.167251D+00  0.000000D+00  0.106611D-01 -0.454158D-02
     23  0.171504D+00 -0.189929D+00  0.000000D+00  0.276551D-01 -0.897795D-02
     24  0.000000D+00  0.000000D+00 -0.133484D-01  0.000000D+00  0.000000D+00
               21            22            23            24 
     21  0.154716D-01
     22  0.000000D+00  0.339123D+00
     23  0.000000D+00 -0.174759D+00  0.182925D+00
     24 -0.770743D-03  0.000000D+00  0.000000D+00  0.155189D-01
 Force constants in internal coordinates: 
                1             2             3             4             5 
      1  0.354974D+00
      2  0.605253D-02  0.582635D+00
      3  0.605252D-02  0.620137D-01  0.582635D+00
      4  0.623781D-03  0.608674D-02 -0.594146D-02  0.452427D+00
      5 -0.126637D-02  0.907235D-02 -0.377010D-02  0.394637D-03  0.445745D+00
      6 -0.126637D-02 -0.377010D-02  0.907235D-02  0.490319D-03  0.897571D-03
      7  0.623783D-03 -0.594146D-02  0.608674D-02  0.382294D-03  0.490318D-03
      8  0.329963D-02  0.819925D-02 -0.318938D-01 -0.235254D-02  0.345839D-02
      9  0.329963D-02 -0.318938D-01  0.819925D-02  0.686437D-03  0.871542D-03
     10 -0.659925D-02  0.236945D-01  0.236945D-01  0.166611D-02 -0.432993D-02
     11 -0.135290D-02  0.164592D-01  0.345800D-02  0.153738D-02 -0.765217D-02
     12  0.170812D-02  0.721666D-02 -0.730697D-03 -0.652815D-02  0.199307D-02
     13 -0.355222D-03 -0.236759D-01 -0.272730D-02  0.499077D-02  0.565910D-02
     14  0.170812D-02 -0.730696D-03  0.721666D-02 -0.140484D-03  0.859361D-03
     15 -0.135290D-02  0.345800D-02  0.164592D-01  0.146339D-03 -0.702341D-03
     16 -0.355221D-03 -0.272731D-02 -0.236759D-01 -0.585564D-05 -0.157020D-03
     17  0.000000D+00  0.000000D+00  0.000000D+00  0.000000D+00  0.000000D+00
     18  0.000000D+00  0.000000D+00  0.000000D+00  0.000000D+00  0.000000D+00
     19  0.000000D+00  0.000000D+00  0.000000D+00  0.000000D+00  0.000000D+00
     20  0.000000D+00  0.000000D+00  0.000000D+00  0.000000D+00  0.000000D+00
     21  0.000000D+00  0.000000D+00  0.000000D+00  0.000000D+00  0.000000D+00
     22  0.000000D+00  0.000000D+00  0.000000D+00  0.000000D+00  0.000000D+00
     23  0.000000D+00  0.000000D+00  0.000000D+00  0.000000D+00  0.000000D+00
     24  0.000000D+00  0.000000D+00  0.000000D+00  0.000000D+00  0.000000D+00
                6             7             8             9            10 
      6  0.445745D+00
      7  0.394637D-03  0.452427D+00
      8  0.871542D-03  0.686437D-03  0.111359D+00
      9  0.345839D-02 -0.235254D-02 -0.361932D-01  0.111359D+00
     10 -0.432993D-02  0.166611D-02 -0.751655D-01 -0.751655D-01  0.150331D+00
     11 -0.702340D-03  0.146339D-03 -0.851584D-02 -0.385018D-02  0.123660D-01
     12  0.859361D-03 -0.140484D-03  0.968830D-02 -0.216906D-03 -0.947140D-02
     13 -0.157021D-03 -0.585475D-05 -0.117246D-02  0.406708D-02 -0.289462D-02
     14  0.199307D-02 -0.652815D-02 -0.216906D-03  0.968830D-02 -0.947140D-02
     15 -0.765217D-02  0.153738D-02 -0.385018D-02 -0.851584D-02  0.123660D-01
     16  0.565910D-02  0.499077D-02  0.406708D-02 -0.117246D-02 -0.289462D-02
     17  0.000000D+00  0.000000D+00  0.000000D+00  0.000000D+00  0.000000D+00
     18  0.000000D+00  0.000000D+00  0.000000D+00  0.000000D+00  0.000000D+00
     19  0.000000D+00  0.000000D+00  0.000000D+00  0.000000D+00  0.000000D+00
     20  0.000000D+00  0.000000D+00  0.000000D+00  0.000000D+00  0.000000D+00
     21  0.000000D+00  0.000000D+00  0.000000D+00  0.000000D+00  0.000000D+00
     22  0.000000D+00  0.000000D+00  0.000000D+00  0.000000D+00  0.000000D+00
     23  0.000000D+00  0.000000D+00  0.000000D+00  0.000000D+00  0.000000D+00
     24  0.000000D+00  0.000000D+00  0.000000D+00  0.000000D+00  0.000000D+00
               11            12            13            14            15 
     11  0.869132D-01
     12 -0.467291D-01  0.849284D-01
     13 -0.401841D-01 -0.381993D-01  0.783834D-01
     14 -0.160686D-02  0.243887D-02 -0.832002D-03  0.849284D-01
     15  0.210051D-02 -0.160686D-02 -0.493649D-03 -0.467291D-01  0.869132D-01
     16 -0.493649D-03 -0.832002D-03  0.132565D-02 -0.381993D-01 -0.401841D-01
     17  0.000000D+00  0.000000D+00  0.000000D+00  0.000000D+00  0.000000D+00
     18  0.000000D+00  0.000000D+00  0.000000D+00  0.000000D+00  0.000000D+00
     19  0.000000D+00  0.000000D+00  0.000000D+00  0.000000D+00  0.000000D+00
     20  0.000000D+00  0.000000D+00  0.000000D+00  0.000000D+00  0.000000D+00
     21  0.000000D+00  0.000000D+00  0.000000D+00  0.000000D+00  0.000000D+00
     22  0.000000D+00  0.000000D+00  0.000000D+00  0.000000D+00  0.000000D+00
     23  0.000000D+00  0.000000D+00  0.000000D+00  0.000000D+00  0.000000D+00
     24  0.000000D+00  0.000000D+00  0.000000D+00  0.000000D+00  0.000000D+00
               16            17            18            19            20 
     16  0.783834D-01
     17  0.000000D+00  0.107581D-01
     18  0.000000D+00  0.465362D-02  0.139620D-01
     19  0.000000D+00  0.392566D-02 -0.595649D-02  0.164009D-01
     20  0.000000D+00 -0.217881D-02  0.335186D-02  0.651879D-02  0.120495D-01
     21  0.000000D+00 -0.426808D-02 -0.595380D-02  0.634203D-02  0.465631D-02
     22  0.000000D+00 -0.405212D-02 -0.426808D-02  0.278031D-02  0.256435D-02
     23  0.000000D+00  0.256436D-02  0.465631D-02 -0.613325D-02 -0.404129D-02
     24  0.000000D+00  0.278031D-02  0.634203D-02 -0.969497D-02 -0.613325D-02
               21            22            23            24 
     21  0.139620D-01
     22  0.465362D-02  0.107581D-01
     23  0.335186D-02 -0.217881D-02  0.120495D-01
     24 -0.595649D-02  0.392565D-02  0.651879D-02  0.164009D-01
 Leave Link  716 at Thu Feb 26 02:06:10 2015, MaxMem= 1073741824 cpu:       0.2
 (Enter /apps/gaussian/g09_c01/g09/l103.exe)

 GradGradGradGradGradGradGradGradGradGradGradGradGradGradGradGradGradGrad
 Berny optimization.
 Red2BG is reusing G-inverse.
 Internal  Forces:  Max     0.014620498 RMS     0.004815554
 Search for a local minimum.
 Step number   1 out of a maximum of   34
 All quantities printed in internal units (Hartrees-Bohrs-Radians)
 RMS Force = .48156D-02 SwitMx=.10000D-02 MixMth= 1
 Mixed Optimization -- RFO/linear search
 Second derivative matrix not updated -- analytic derivatives used.
 ITU=  0
     Eigenvalues ---    0.01320   0.01428   0.01623   0.02074   0.04189
     Eigenvalues ---    0.11242   0.11720   0.12407   0.12892   0.14887
     Eigenvalues ---    0.22749   0.35546   0.44290   0.44720   0.45112
     Eigenvalues ---    0.45317   0.53004   0.65121
 RFO step:  Lambda=-9.43577064D-04 EMin= 1.32007688D-02
 Linear search not attempted -- first point.
 Iteration  1 RMS(Cart)=  0.01642399 RMS(Int)=  0.00002643
 Iteration  2 RMS(Cart)=  0.00004203 RMS(Int)=  0.00000000
 Iteration  3 RMS(Cart)=  0.00000000 RMS(Int)=  0.00000000
 ClnCor:  largest displacement from symmetrization is 6.85D-10 for atom     8.
 Variable       Old X    -DE/DX   Delta X   Delta X   Delta X     New X
                                 (Linear)    (Quad)   (Total)
    R1        2.05337  -0.00293   0.00000  -0.00765  -0.00765   2.04572
    R2        2.48365  -0.01462   0.00000  -0.02182  -0.02182   2.46183
    R3        2.48365  -0.01462   0.00000  -0.02182  -0.02182   2.46183
    R4        1.91586  -0.00516   0.00000  -0.01143  -0.01143   1.90443
    R5        1.91959  -0.00527   0.00000  -0.01165  -0.01165   1.90794
    R6        1.91959  -0.00527   0.00000  -0.01165  -0.01165   1.90794
    R7        1.91586  -0.00516   0.00000  -0.01143  -0.01143   1.90443
    A1        2.04681   0.00111   0.00000   0.00293   0.00293   2.04974
    A2        2.04681   0.00111   0.00000   0.00293   0.00293   2.04974
    A3        2.18957  -0.00221   0.00000  -0.00587  -0.00587   2.18370
    A4        2.09627  -0.00054   0.00000  -0.00094  -0.00094   2.09533
    A5        2.15059  -0.00068   0.00000  -0.00519  -0.00519   2.14540
    A6        2.03632   0.00122   0.00000   0.00614   0.00614   2.04245
    A7        2.15059  -0.00068   0.00000  -0.00519  -0.00519   2.14540
    A8        2.09627  -0.00054   0.00000  -0.00094  -0.00094   2.09533
    A9        2.03632   0.00122   0.00000   0.00614   0.00614   2.04245
    D1        0.00000   0.00000   0.00000   0.00000   0.00000   0.00000
    D2        3.14159   0.00000   0.00000   0.00000   0.00000   3.14159
    D3        3.14159   0.00000   0.00000   0.00000   0.00000   3.14159
    D4        0.00000   0.00000   0.00000   0.00000   0.00000   0.00000
    D5        3.14159   0.00000   0.00000   0.00000   0.00000   3.14159
    D6        0.00000   0.00000   0.00000   0.00000   0.00000   0.00000
    D7        0.00000   0.00000   0.00000   0.00000   0.00000   0.00000
    D8        3.14159   0.00000   0.00000   0.00000   0.00000   3.14159
         Item               Value     Threshold  Converged?
 Maximum Force            0.014620     0.000002     NO 
 RMS     Force            0.004816     0.000001     NO 
 Maximum Displacement     0.039352     0.000006     NO 
 RMS     Displacement     0.016405     0.000004     NO 
 Predicted change in Energy=-4.726044D-04
 GradGradGradGradGradGradGradGradGradGradGradGradGradGradGradGradGradGrad

 Leave Link  103 at Thu Feb 26 02:06:10 2015, MaxMem= 1073741824 cpu:       0.1
 (Enter /apps/gaussian/g09_c01/g09/l202.exe)
                          Input orientation:                          
 ---------------------------------------------------------------------
 Center     Atomic      Atomic             Coordinates (Angstroms)
 Number     Number       Type             X           Y           Z
 ---------------------------------------------------------------------
      1          6           0        0.000000    0.426263    0.000000
      2          1           0        0.000000    1.508811    0.000000
      3          7           0        1.156160   -0.174101    0.000000
      4          1           0        2.006068    0.367447    0.000000
      5          1           0        1.252590   -1.179121    0.000000
      6          7           0       -1.156160   -0.174101    0.000000
      7          1           0       -1.252590   -1.179121    0.000000
      8          1           0       -2.006068    0.367447    0.000000
 ---------------------------------------------------------------------
                    Distance matrix (angstroms):
                    1          2          3          4          5
     1  C    0.000000
     2  H    1.082548   0.000000
     3  N    1.302744   2.041787   0.000000
     4  H    2.006930   2.308034   1.007779   0.000000
     5  H    2.036231   2.965461   1.009636   1.720350   0.000000
     6  N    1.302744   2.041787   2.312319   3.208264   2.610007
     7  H    2.036231   2.965461   2.610007   3.607038   2.505179
     8  H    2.006930   2.308034   3.208264   4.012136   3.607038
                    6          7          8
     6  N    0.000000
     7  H    1.009636   0.000000
     8  H    1.007779   1.720350   0.000000
 Stoichiometry    CH5N2(1+)
 Framework group  C2V[C2(CH),SGV(H4N2)]
 Deg. of freedom     7
 Full point group                 C2V     NOp   4
 RotChk:  IX=0 Diff= 2.94D-16
 Largest Abelian subgroup         C2V     NOp   4
 Largest concise Abelian subgroup C2      NOp   2
                         Standard orientation:                         
 ---------------------------------------------------------------------
 Center     Atomic      Atomic             Coordinates (Angstroms)
 Number     Number       Type             X           Y           Z
 ---------------------------------------------------------------------
      1          6           0        0.000000    0.000000    0.426038
      2          1           0        0.000000    0.000000    1.508585
      3          7           0        0.000000    1.156160   -0.174326
      4          1           0        0.000000    2.006068    0.367222
      5          1           0        0.000000    1.252590   -1.179346
      6          7           0        0.000000   -1.156160   -0.174326
      7          1           0        0.000000   -1.252590   -1.179346
      8          1           0        0.000000   -2.006068    0.367222
 ---------------------------------------------------------------------
 Rotational constants (GHZ):     60.1796446     10.3752461      8.8495442
 Leave Link  202 at Thu Feb 26 02:06:10 2015, MaxMem= 1073741824 cpu:       0.0
 (Enter /apps/gaussian/g09_c01/g09/l301.exe)
 Standard basis: Aug-CC-pVQZ (5D, 7F)
 Ernie: Thresh=  0.10000D-02 Tol=  0.10000D-05 Strict=F.
 Ernie:  9 primitive shells out of 194 were deleted.
 There are   160 symmetry adapted basis functions of A1  symmetry.
 There are    78 symmetry adapted basis functions of A2  symmetry.
 There are    92 symmetry adapted basis functions of B1  symmetry.
 There are   140 symmetry adapted basis functions of B2  symmetry.
 Integral buffers will be    131072 words long.
 Raffenetti 2 integral format.
 Two-electron integral symmetry is turned on.
   470 basis functions,   657 primitive gaussians,   590 cartesian basis functions
    12 alpha electrons       12 beta electrons
       nuclear repulsion energy        80.0826674212 Hartrees.
 IExCor=20419 DFT=T Ex+Corr=CAM-B3LYP ExCW=0 ScaHFX=  1.000000
 ScaDFX=  1.000000  1.000000  1.000000  0.810000 ScalE2=  1.000000  1.000000
 IRadAn=      5 IRanWt=     -1 IRanGd=            0 ICorTp=0
  HFx wShort=  0.000000 wLong=  0.330000 cFull=  0.190000 cShort=  0.000000 cLong=  0.460000
  DFx wShort=  0.000000 wLong=  0.330000 cFull=  0.190000 cShort=  0.000000 cLong=  0.460000
 NAtoms=    8 NActive=    8 NUniq=    5 SFac= 2.56D+00 NAtFMM=   60 NAOKFM=F Big=F
 Leave Link  301 at Thu Feb 26 02:06:10 2015, MaxMem= 1073741824 cpu:       0.3
 (Enter /apps/gaussian/g09_c01/g09/l302.exe)
 NPDir=0 NMtPBC=     1 NCelOv=     1 NCel=       1 NClECP=     1 NCelD=      1
         NCelK=      1 NCelE2=     1 NClLst=     1 CellRange=     0.0.
 One-electron integrals computed using PRISM.
 One-electron integral symmetry used in STVInt
 NBasis=   470 RedAO= T  NBF=   160    78    92   140
 NBsUse=   470 1.00D-06 NBFU=   160    78    92   140
 Precomputing XC quadrature grid using
 IXCGrd= 2 IRadAn=           5 IRanWt=          -1 IRanGd=           0 AccXCQ= 0.00D+00.
 NRdTot=     687 NPtTot=      185464 NUsed=      190390 NTot=      190422
 NSgBfM=   590   590   590   590   590 NAtAll=     8     8.
 Leave Link  302 at Thu Feb 26 02:06:10 2015, MaxMem= 1073741824 cpu:       3.5
 (Enter /apps/gaussian/g09_c01/g09/l303.exe)
 DipDrv:  MaxL=1.
 Leave Link  303 at Thu Feb 26 02:06:10 2015, MaxMem= 1073741824 cpu:       0.5
 (Enter /apps/gaussian/g09_c01/g09/l401.exe)
 Initial guess read from the read-write file.
 B after Tr=     0.000000    0.000000    0.000000
         Rot=    1.000000    0.000000    0.000000    0.000000 Ang=   0.00 deg.
 Guess basis will be translated and rotated to current coordinates.
 Initial guess orbital symmetries:
       Occupied  (B2) (A1) (A1) (A1) (B2) (A1) (A1) (B2) (B2) (A1)
                 (B1) (A2)
       Virtual   (B1) (A1) (A1) (B2) (B1) (A1) (B2) (A1) (A1) (B2)
                 (A2) (A1) (B1) (A1) (B2) (B2) (A1) (B2) (B1) (A1)
                 (A2) (A1) (B2) (B1) (B2) (A1) (B1) (A1) (A1) (A2)
                 (A1) (B2) (A1) (B2) (B1) (A2) (B2) (A1) (B2) (A1)
                 (A1) (B1) (B2) (B2) (A1) (B1) (A2) (B2) (B1) (A1)
                 (B2) (A2) (A1) (B2) (A1) (A1) (B2) (B1) (A1) (B2)
                 (A1) (A2) (A1) (B1) (A2) (B2) (A1) (B1) (A1) (B2)
                 (B1) (B1) (A2) (B2) (A1) (B2) (A1) (B2) (A2) (A1)
                 (A1) (B1) (A2) (A1) (B1) (B2) (B2) (A2) (A1) (A2)
                 (B2) (B1) (B2) (A1) (B2) (A1) (A2) (B2) (A1) (A1)
                 (B1) (A1) (B1) (B2) (B2) (A1) (A2) (A1) (B2) (B1)
                 (B2) (B1) (A1) (A2) (A1) (A1) (B1) (B2) (A2) (B1)
                 (A1) (B2) (A1) (B2) (A1) (B1) (B2) (A2) (A1) (B2)
                 (A2) (A1) (B2) (B1) (B1) (B2) (A1) (A2) (B2) (A1)
                 (B1) (A2) (A1) (B1) (B2) (B2) (A1) (A2) (B1) (B2)
                 (A1) (A2) (B2) (A1) (B1) (A1) (B2) (A1) (A2) (B2)
                 (A1) (A1) (B1) (A2) (B2) (B1) (A1) (A1) (B1) (B2)
                 (A1) (B1) (B2) (A2) (A2) (B1) (B2) (A1) (A2) (B2)
                 (A1) (B1) (A1) (B1) (B2) (A2) (A1) (B2) (A1) (B2)
                 (A1) (A2) (B2) (B1) (B2) (A2) (B2) (A1) (B1) (A2)
                 (A1) (B1) (B2) (A1) (A1) (A2) (B1) (B2) (B2) (A1)
                 (B1) (B2) (A2) (B1) (A1) (A1) (B2) (A1) (A2) (B2)
                 (B1) (B2) (A2) (B1) (B2) (A1) (A1) (A1) (B2) (A2)
                 (A1) (B1) (A2) (A1) (B2) (B1) (B2) (A1) (A2) (B2)
                 (A1) (A1) (B2) (B1) (B2) (A1) (A2) (B2) (B1) (B2)
                 (A1) (A1) (A2) (B1) (A2) (B2) (A1) (B1) (A1) (B2)
                 (A1) (B1) (A2) (A1) (B2) (A2) (A1) (B2) (B1) (A1)
                 (B2) (A2) (B1) (A1) (B2) (A1) (A2) (B2) (B1) (A1)
                 (B2) (A1) (B2) (A2) (B2) (B1) (A1) (B1) (A1) (B2)
                 (A2) (B2) (B1) (A2) (A1) (B2) (A1) (A1) (B2) (A1)
                 (B2) (A1) (B2) (A2) (B1) (B1) (A1) (B1) (B2) (B1)
                 (A1) (A2) (B2) (A1) (B1) (A2) (B1) (A1) (A2) (B2)
                 (A1) (B2) (B1) (A1) (B2) (A2) (B2) (A1) (A1) (B1)
                 (A2) (B1) (B2) (B1) (B2) (A1) (B2) (A2) (B1) (A1)
                 (A1) (A2) (B2) (A2) (A1) (B2) (A2) (A1) (B1) (B1)
                 (B2) (A1) (A2) (B1) (A1) (A2) (B2) (A1) (B1) (B1)
                 (A2) (B2) (A1) (B2) (A1) (A1) (B2) (A1) (B2) (B1)
                 (A2) (B2) (B1) (B2) (A2) (A1) (B1) (A2) (A1) (B2)
                 (B1) (B2) (A1) (A1) (B1) (A2) (B2) (A2) (B2) (A1)
                 (A1) (B2) (B2) (A1) (B1) (A2) (A1) (A1) (B2) (A2)
                 (B1) (B2) (A1) (B1) (B1) (A1) (B2) (A1) (A2) (A2)
                 (B1) (B2) (B2) (B1) (A2) (A2) (A1) (B1) (A1) (B2)
                 (B1) (A1) (A2) (A1) (B2) (B2) (A2) (A1) (B2) (B1)
                 (B2) (A1) (A1) (B2) (B2) (A1) (A1) (B1) (A2) (B1)
                 (A2) (B2) (A1) (B2) (A1) (B2) (A1) (A1) (B2) (A1)
                 (B2) (A1) (B2) (B2) (A1) (A1) (A1) (B2)
 The electronic state of the initial guess is 1-A1.
 Generating alternative initial guess.
 Harris functional with IExCor=20419 diagonalized for initial guess.
 ExpMin= 2.36D-02 ExpMax= 4.58D+04 ExpMxC= 4.42D+02 IAcc=3 IRadAn=         5 AccDes= 0.00D+00
 HarFok:  IExCor=20419 AccDes= 0.00D+00 IRadAn=         5 IDoV= 1
 ScaDFX=  1.000000  1.000000  1.000000  1.000000
 FoFCou: FMM=F IPFlag=           0 FMFlag=      100000 FMFlg1=           0
         NFxFlg=           0 DoJE=T BraDBF=F KetDBF=T FulRan=T
         Omega=  0.000000  0.000000  1.000000  0.000000  0.000000 ICntrl=     500 IOpCl=  0
         NMat0=    1 NMatS0=    1 NMatT0=    0 NMatD0=    1 NMtDS0=    0 NMtDT0=    0
         I1Cent=           4 NGrid=           0.
 Petite list used in FoFCou.
 Harris En= -144.708681731016    
 Leave Link  401 at Thu Feb 26 02:06:13 2015, MaxMem= 1073741824 cpu:      18.2
 (Enter /apps/gaussian/g09_c01/g09/l502.exe)
 Closed shell SCF:
 Requested convergence on RMS density matrix=1.00D-08 within 128 cycles.
 Requested convergence on MAX density matrix=1.00D-06.
 Requested convergence on             energy=1.00D-06.
 No special actions if energy rises.
 Using DIIS extrapolation, IDIIS=  1040.
 Integral symmetry usage will be decided dynamically.
       190305 words used for storage of precomputed grid.
 IEnd=     1262487 IEndB=     1262487 NGot=  1073741824 MDV=  1072844668
 LenX=  1072844668 LenY=  1072495978
 Fock matrices will be formed incrementally for  20 cycles.

 Cycle   1  Pass 1  IDiag  1:
 FoFJK:  IHMeth= 1 ICntrl=     0 DoSepK=T KAlg= 1 I1Cent= 0 FoldK=F
 FoFCou: FMM=F IPFlag=           0 FMFlag=      100000 FMFlg1=           0
         NFxFlg=           0 DoJE=T BraDBF=F KetDBF=F FulRan=T
         Omega=  0.000000  0.000000  1.000000  0.000000  0.000000 ICntrl=     500 IOpCl=  0
         NMat0=    1 NMatS0=    1 NMatT0=    0 NMatD0=    1 NMtDS0=    0 NMtDT0=    0
         I1Cent=           0 NGrid=           0.
 Petite list used in FoFCou.
 E= -150.384753111461    
 DIIS: error= 1.03D-03 at cycle   1 NSaved=   1.
 NSaved= 1 IEnMin= 1 EnMin= -150.384753111461     IErMin= 1 ErrMin= 1.03D-03
 ErrMax= 1.03D-03 EMaxC= 1.00D-01 BMatC= 4.39D-04 BMatP= 4.39D-04
 IDIUse=3 WtCom= 9.90D-01 WtEn= 1.03D-02
 Coeff-Com:  0.100D+01
 Coeff-En:   0.100D+01
 Coeff:      0.100D+01
 Gap=     0.551 Goal=   None    Shift=    0.000
 GapD=    0.551 DampG=2.000 DampE=1.000 DampFc=2.0000 IDamp=-1.
 RMSDP=4.10D-05 MaxDP=3.65D-03              OVMax= 3.66D-03

 Cycle   2  Pass 1  IDiag  1:
 RMSU=  2.90D-05    CP:  1.00D+00
 FoFJK:  IHMeth= 1 ICntrl=     0 DoSepK=T KAlg= 1 I1Cent= 0 FoldK=F
 E= -150.384897046311     Delta-E=       -0.000143934850 Rises=F Damp=F
 DIIS: error= 4.23D-04 at cycle   2 NSaved=   2.
 NSaved= 2 IEnMin= 2 EnMin= -150.384897046311     IErMin= 2 ErrMin= 4.23D-04
 ErrMax= 4.23D-04 EMaxC= 1.00D-01 BMatC= 3.37D-05 BMatP= 4.39D-04
 IDIUse=3 WtCom= 9.96D-01 WtEn= 4.23D-03
 Coeff-Com:  0.110D+00 0.890D+00
 Coeff-En:   0.000D+00 0.100D+01
 Coeff:      0.110D+00 0.890D+00
 Gap=     0.393 Goal=   None    Shift=    0.000
 RMSDP=9.29D-06 MaxDP=5.46D-04 DE=-1.44D-04 OVMax= 1.90D-03

 Cycle   3  Pass 1  IDiag  1:
 RMSU=  6.45D-06    CP:  9.99D-01  1.01D+00
 FoFJK:  IHMeth= 1 ICntrl=     0 DoSepK=T KAlg= 1 I1Cent= 0 FoldK=F
 E= -150.384911390235     Delta-E=       -0.000014343924 Rises=F Damp=F
 DIIS: error= 2.46D-04 at cycle   3 NSaved=   3.
 NSaved= 3 IEnMin= 3 EnMin= -150.384911390235     IErMin= 3 ErrMin= 2.46D-04
 ErrMax= 2.46D-04 EMaxC= 1.00D-01 BMatC= 1.64D-05 BMatP= 3.37D-05
 IDIUse=3 WtCom= 9.98D-01 WtEn= 2.46D-03
 Coeff-Com: -0.914D-02 0.408D+00 0.601D+00
 Coeff-En:   0.000D+00 0.287D+00 0.713D+00
 Coeff:     -0.911D-02 0.408D+00 0.601D+00
 Gap=     0.394 Goal=   None    Shift=    0.000
 RMSDP=3.46D-06 MaxDP=1.91D-04 DE=-1.43D-05 OVMax= 7.36D-04

 Cycle   4  Pass 1  IDiag  1:
 RMSU=  9.36D-07    CP:  1.00D+00  1.03D+00  6.64D-01
 FoFJK:  IHMeth= 1 ICntrl=     0 DoSepK=T KAlg= 1 I1Cent= 0 FoldK=F
 E= -150.384923514591     Delta-E=       -0.000012124356 Rises=F Damp=F
 DIIS: error= 4.24D-05 at cycle   4 NSaved=   4.
 NSaved= 4 IEnMin= 4 EnMin= -150.384923514591     IErMin= 4 ErrMin= 4.24D-05
 ErrMax= 4.24D-05 EMaxC= 1.00D-01 BMatC= 1.56D-07 BMatP= 1.64D-05
 IDIUse=1 WtCom= 1.00D+00 WtEn= 0.00D+00
 Coeff-Com: -0.407D-02 0.108D+00 0.180D+00 0.716D+00
[...]
 
     33  33          3                                                 1  1 1      11        11 1                                    
     66  55          2                                                 7  7 6      43        11 0          7  66 55                  
     77  75          1                                                 8  0 2      39        30 4          3  42 52                  
     32  05          6                                                 6  1 2      11        92 7          3  92 74                  
 
     XX  XX          X                                                 X  X X      XX        XX X              X  X                  
     XX  X           X                                                             X         X                                       
     XX  X           X                                                                                                               
     X   X           X                                                                                                               
         X           X                                                                                                               
         X           X                                                                                                               
         X           X                                                                                                               
         X                                                                                                                           
         X                                                                                                                           
         X                                                                                                                           
         X                                                                                                                           
         X                                                                                                                           
         X                                                                                                                           
         X                                                                                                                           
         X                                                                                                                           
         X                                                                                                                           
         X                                                                                                                           
         X                                                                                                                           
         X                                                                                                                           
         X                                                                                                                           
 
 ***** Axes restored to original set *****
 -------------------------------------------------------------------
 Center     Atomic                   Forces (Hartrees/Bohr)
 Number     Number              X              Y              Z
 -------------------------------------------------------------------
      1        6           0.000000000    0.000000155    0.000000000
      2        1           0.000000000   -0.000000049    0.000000000
      3        7           0.000000064   -0.000000023    0.000000000
      4        1           0.000000048    0.000000018    0.000000000
      5        1           0.000000001   -0.000000048    0.000000000
      6        7          -0.000000064   -0.000000023    0.000000000
      7        1          -0.000000001   -0.000000048    0.000000000
      8        1          -0.000000048    0.000000018    0.000000000
 -------------------------------------------------------------------
 Cartesian Forces:  Max     0.000000155 RMS     0.000000044
 Force constants in Cartesian coordinates: 
                1             2             3             4             5 
      1  0.949550D+00
      2  0.000000D+00  0.851817D+00
      3  0.000000D+00  0.000000D+00  0.176479D+00
      4 -0.659431D-01  0.000000D+00  0.000000D+00  0.712917D-01
      5  0.000000D+00 -0.347302D+00  0.000000D+00  0.000000D+00  0.362907D+00
      6  0.000000D+00  0.000000D+00 -0.571002D-01  0.000000D+00  0.000000D+00
      7 -0.417031D+00  0.162513D+00  0.000000D+00  0.655394D-04  0.190241D-02
      8  0.144212D+00 -0.259450D+00  0.000000D+00  0.360818D-01 -0.998018D-02
      9  0.000000D+00  0.000000D+00 -0.564610D-01  0.000000D+00  0.000000D+00
     10 -0.279984D-01 -0.172158D-01  0.000000D+00  0.122871D-02  0.205117D-03
     11  0.166858D-01  0.167352D-01  0.000000D+00  0.973306D-03  0.798653D-03
     12  0.000000D+00  0.000000D+00 -0.528838D-02  0.000000D+00  0.000000D+00
     13  0.322655D-02  0.376071D-01  0.000000D+00 -0.396857D-02  0.973070D-03
     14  0.870889D-02 -0.954259D-02  0.000000D+00  0.930909D-03  0.137908D-02
     15  0.000000D+00  0.000000D+00  0.206001D-02  0.000000D+00  0.000000D+00
     16 -0.417031D+00 -0.162513D+00  0.000000D+00  0.655369D-04 -0.190240D-02
     17 -0.144212D+00 -0.259450D+00  0.000000D+00 -0.360818D-01 -0.998018D-02
     18  0.000000D+00  0.000000D+00 -0.564610D-01  0.000000D+00  0.000000D+00
     19  0.322655D-02 -0.376071D-01  0.000000D+00 -0.396857D-02 -0.973070D-03
     20 -0.870888D-02 -0.954260D-02  0.000000D+00 -0.930908D-03  0.137908D-02
     21  0.000000D+00  0.000000D+00  0.206001D-02  0.000000D+00  0.000000D+00
     22 -0.279984D-01  0.172158D-01  0.000000D+00  0.122871D-02 -0.205119D-03
     23 -0.166858D-01  0.167352D-01  0.000000D+00 -0.973306D-03  0.798654D-03
     24  0.000000D+00  0.000000D+00 -0.528838D-02  0.000000D+00  0.000000D+00
                6             7             8             9            10 
      6  0.325386D-01
      7  0.000000D+00  0.919662D+00
      8  0.000000D+00 -0.194775D-01  0.869419D+00
      9  0.867992D-02  0.000000D+00  0.000000D+00  0.604910D-01
     10  0.000000D+00 -0.337415D+00 -0.174656D+00  0.000000D+00  0.352141D+00
     11  0.000000D+00 -0.179520D+00 -0.193229D+00  0.000000D+00  0.182503D+00
     12 -0.427953D-02  0.000000D+00  0.000000D+00 -0.116266D-01  0.000000D+00
     13  0.000000D+00 -0.800806D-01  0.272854D-01  0.000000D+00  0.108037D-01
     14  0.000000D+00  0.265978D-01 -0.443294D+00  0.000000D+00  0.454507D-02
     15  0.788041D-02  0.000000D+00  0.000000D+00 -0.178497D-01  0.000000D+00
     16  0.000000D+00 -0.891984D-01 -0.923347D-02  0.000000D+00  0.206788D-02
     17  0.000000D+00  0.923347D-02  0.376810D-01  0.000000D+00  0.526910D-02
     18  0.867992D-02  0.000000D+00  0.000000D+00  0.148108D-01  0.000000D+00
     19  0.000000D+00  0.192945D-02  0.105656D-02  0.000000D+00 -0.125423D-03
     20  0.000000D+00  0.550570D-02  0.393845D-03  0.000000D+00 -0.236353D-03
     21  0.788041D-02  0.000000D+00  0.000000D+00 -0.425985D-02  0.000000D+00
     22  0.000000D+00  0.206788D-02 -0.526910D-02  0.000000D+00 -0.702495D-03
     23  0.000000D+00 -0.675491D-02 -0.154060D-02  0.000000D+00 -0.413952D-03
     24 -0.427953D-02  0.000000D+00  0.000000D+00  0.621534D-02  0.000000D+00
               11            12            13            14            15 
     11  0.185681D+00
     12  0.000000D+00  0.134288D-01
     13 -0.280469D-01  0.000000D+00  0.698619D-01
     14 -0.880688D-02  0.000000D+00 -0.360198D-01  0.459575D+00
     15  0.000000D+00 -0.836178D-03  0.000000D+00  0.000000D+00  0.132526D-01
     16  0.675491D-02  0.000000D+00  0.192945D-02 -0.550570D-02  0.000000D+00
     17 -0.154060D-02  0.000000D+00 -0.105656D-02  0.393845D-03  0.000000D+00
     18  0.000000D+00  0.621534D-02  0.000000D+00  0.000000D+00 -0.425985D-02
     19  0.235916D-03  0.000000D+00 -0.164697D-02  0.506403D-03  0.000000D+00
     20 -0.524716D-03  0.000000D+00 -0.506403D-03  0.820584D-03  0.000000D+00
     21  0.000000D+00 -0.626925D-03  0.000000D+00  0.000000D+00  0.379611D-03
     22  0.413952D-03  0.000000D+00 -0.125423D-03  0.236353D-03  0.000000D+00
     23  0.886680D-03  0.000000D+00 -0.235916D-03 -0.524716D-03  0.000000D+00
     24  0.000000D+00  0.301349D-02  0.000000D+00  0.000000D+00 -0.626925D-03
               16            17            18            19            20 
     16  0.919662D+00
     17  0.194775D-01  0.869419D+00
     18  0.000000D+00  0.000000D+00  0.604910D-01
     19 -0.800806D-01 -0.272854D-01  0.000000D+00  0.698619D-01
     20 -0.265978D-01 -0.443294D+00  0.000000D+00  0.360198D-01  0.459575D+00
     21  0.000000D+00  0.000000D+00 -0.178497D-01  0.000000D+00  0.000000D+00
     22 -0.337415D+00  0.174656D+00  0.000000D+00  0.108037D-01 -0.454507D-02
     23  0.179520D+00 -0.193229D+00  0.000000D+00  0.280469D-01 -0.880688D-02
     24  0.000000D+00  0.000000D+00 -0.116266D-01  0.000000D+00  0.000000D+00
               21            22            23            24 
     21  0.132526D-01
     22  0.000000D+00  0.352141D+00
     23  0.000000D+00 -0.182503D+00  0.185681D+00
     24 -0.836178D-03  0.000000D+00  0.000000D+00  0.134288D-01
 Red2BG is reusing G-inverse.
 Force constants in internal coordinates: 
                1             2             3             4             5 
      1  0.362907D+00
      2  0.632933D-02  0.624634D+00
      3  0.632932D-02  0.648267D-01  0.624634D+00
      4  0.602252D-03  0.638542D-02 -0.596299D-02  0.469490D+00
      5 -0.127976D-02  0.940613D-02 -0.382558D-02  0.326803D-03  0.462868D+00
      6 -0.127976D-02 -0.382557D-02  0.940613D-02  0.477179D-03  0.924663D-03
      7  0.602254D-03 -0.596300D-02  0.638543D-02  0.380316D-03  0.477178D-03
      8  0.346149D-02  0.742535D-02 -0.332382D-01 -0.250045D-02  0.365681D-02
      9  0.346149D-02 -0.332382D-01  0.742535D-02  0.689270D-03  0.984775D-03
     10 -0.692297D-02  0.258128D-01  0.258128D-01  0.181118D-02 -0.464159D-02
     11 -0.141506D-02  0.167290D-01  0.357683D-02  0.180500D-02 -0.780689D-02
     12  0.175741D-02  0.751528D-02 -0.776848D-03 -0.664968D-02  0.226469D-02
     13 -0.342350D-03 -0.242443D-01 -0.279998D-02  0.484468D-02  0.554220D-02
     14  0.175741D-02 -0.776847D-03  0.751528D-02 -0.143463D-03  0.915535D-03
     15 -0.141506D-02  0.357683D-02  0.167290D-01  0.158799D-03 -0.732380D-03
     16 -0.342349D-03 -0.279998D-02 -0.242443D-01 -0.153354D-04 -0.183154D-03
     17  0.000000D+00  0.000000D+00  0.000000D+00  0.000000D+00  0.000000D+00
     18  0.000000D+00  0.000000D+00  0.000000D+00  0.000000D+00  0.000000D+00
     19  0.000000D+00  0.000000D+00  0.000000D+00  0.000000D+00  0.000000D+00
     20  0.000000D+00  0.000000D+00  0.000000D+00  0.000000D+00  0.000000D+00
     21  0.000000D+00  0.000000D+00  0.000000D+00  0.000000D+00  0.000000D+00
     22  0.000000D+00  0.000000D+00  0.000000D+00  0.000000D+00  0.000000D+00
     23  0.000000D+00  0.000000D+00  0.000000D+00  0.000000D+00  0.000000D+00
     24  0.000000D+00  0.000000D+00  0.000000D+00  0.000000D+00  0.000000D+00
                6             7             8             9            10 
      6  0.462868D+00
      7  0.326802D-03  0.469490D+00
      8  0.984775D-03  0.689270D-03  0.113478D+00
      9  0.365682D-02 -0.250045D-02 -0.357060D-01  0.113478D+00
     10 -0.464159D-02  0.181118D-02 -0.777725D-01 -0.777725D-01  0.155545D+00
     11 -0.732379D-03  0.158798D-03 -0.845300D-02 -0.384503D-02  0.122980D-01
     12  0.915535D-03 -0.143463D-03  0.958496D-02 -0.255943D-03 -0.932901D-02
     13 -0.183156D-03 -0.153345D-04 -0.113196D-02  0.410098D-02 -0.296902D-02
     14  0.226469D-02 -0.664968D-02 -0.255943D-03  0.958496D-02 -0.932901D-02
     15 -0.780689D-02  0.180500D-02 -0.384503D-02 -0.845300D-02  0.122980D-01
     16  0.554220D-02  0.484468D-02  0.410098D-02 -0.113196D-02 -0.296902D-02
     17  0.000000D+00  0.000000D+00  0.000000D+00  0.000000D+00  0.000000D+00
     18  0.000000D+00  0.000000D+00  0.000000D+00  0.000000D+00  0.000000D+00
     19  0.000000D+00  0.000000D+00  0.000000D+00  0.000000D+00  0.000000D+00
     20  0.000000D+00  0.000000D+00  0.000000D+00  0.000000D+00  0.000000D+00
     21  0.000000D+00  0.000000D+00  0.000000D+00  0.000000D+00  0.000000D+00
     22  0.000000D+00  0.000000D+00  0.000000D+00  0.000000D+00  0.000000D+00
     23  0.000000D+00  0.000000D+00  0.000000D+00  0.000000D+00  0.000000D+00
     24  0.000000D+00  0.000000D+00  0.000000D+00  0.000000D+00  0.000000D+00
               11            12            13            14            15 
     11  0.882117D-01
     12 -0.478362D-01  0.863762D-01
     13 -0.403755D-01 -0.385400D-01  0.789154D-01
     14 -0.162619D-02  0.250655D-02 -0.880361D-03  0.863762D-01
     15  0.209580D-02 -0.162619D-02 -0.469606D-03 -0.478362D-01  0.882117D-01
     16 -0.469606D-03 -0.880361D-03  0.134997D-02 -0.385400D-01 -0.403755D-01
     17  0.000000D+00  0.000000D+00  0.000000D+00  0.000000D+00  0.000000D+00
     18  0.000000D+00  0.000000D+00  0.000000D+00  0.000000D+00  0.000000D+00
     19  0.000000D+00  0.000000D+00  0.000000D+00  0.000000D+00  0.000000D+00
     20  0.000000D+00  0.000000D+00  0.000000D+00  0.000000D+00  0.000000D+00
     21  0.000000D+00  0.000000D+00  0.000000D+00  0.000000D+00  0.000000D+00
     22  0.000000D+00  0.000000D+00  0.000000D+00  0.000000D+00  0.000000D+00
     23  0.000000D+00  0.000000D+00  0.000000D+00  0.000000D+00  0.000000D+00
     24  0.000000D+00  0.000000D+00  0.000000D+00  0.000000D+00  0.000000D+00
               16            17            18            19            20 
     16  0.789154D-01
     17  0.000000D+00  0.112277D-01
     18  0.000000D+00  0.452433D-02  0.143439D-01
     19  0.000000D+00  0.415526D-02 -0.628785D-02  0.169611D-01
     20  0.000000D+00 -0.254815D-02  0.353176D-02  0.651795D-02  0.125979D-01
     21  0.000000D+00 -0.438726D-02 -0.608640D-02  0.642492D-02  0.472578D-02
     22  0.000000D+00 -0.415077D-02 -0.438726D-02  0.292170D-02  0.268522D-02
     23  0.000000D+00  0.268522D-02  0.472578D-02 -0.638088D-02 -0.434032D-02
     24  0.000000D+00  0.292170D-02  0.642492D-02 -0.988409D-02 -0.638088D-02
               21            22            23            24 
     21  0.143439D-01
     22  0.452432D-02  0.112277D-01
     23  0.353176D-02 -0.254815D-02  0.125979D-01
     24 -0.628785D-02  0.415526D-02  0.651795D-02  0.169611D-01
 Leave Link  716 at Thu Feb 26 07:32:20 2015, MaxMem= 1073741824 cpu:       0.1
 (Enter /apps/gaussian/g09_c01/g09/l9999.exe)
 1\1\GINC-CX1-1-7-4\Freq\RCAM-B3LYP\Aug-CC-pVQZ\C1H5N2(1+)\JMF02\26-Feb
 -2015\0\\#p opt(VeryTight,CalcAll,Raman) Integral(Grid=UltraFine) CAM-
 b3lyp/AUG-cc-pVQZ\\Autjob by noodles.sh | Great noodly basis sets\\1,1
 \C,0.,0.4263069035,0.\H,0.,1.50888383,0.\N,1.1565358246,-0.1741560242,
 0.\H,2.0064370083,0.3675925551,0.\H,1.2530491222,-1.1792688975,0.\N,-1
 .1565358246,-0.1741560242,0.\H,-1.2530491222,-1.1792688975,0.\H,-2.006
 4370083,0.3675925551,0.\\Version=EM64L-G09RevC.01\State=1-A1\HF=-150.3
 84924\RMSD=2.311e-09\RMSF=4.355e-08\ZeroPoint=0.0728782\Thermal=0.0765
 839\Dipole=0.,-0.0717665,0.\DipoleDeriv=2.008875,0.,0.,0.,0.4094713,0.
 ,0.,0.,0.3182932,0.0929851,0.,0.,0.,0.1495344,0.,0.,0.,0.1517204,-1.14
 93319,0.0675896,0.,0.4862541,-0.3006719,0.,0.,0.,-0.3971278,0.3977294,
 0.0556544,0.,0.1062668,0.2169202,0.,0.,0.,0.3300099,0.2006724,-0.06215
 8,0.,-0.1186215,0.3042488,0.,0.,0.,0.3321112,-1.1493319,-0.0675896,0.,
 -0.4862541,-0.3006719,0.,0.,0.,-0.3971278,0.2006724,0.062158,0.,0.1186
 215,0.3042488,0.,0.,0.,0.3321112,0.3977294,-0.0556544,0.,-0.1062668,0.
 2169202,0.,0.,0.,0.3300099\Polar=36.7280645,0.,24.7001935,0.,0.,18.134
 0091\PolarDeriv=0.0000002,0.8315533,-0.0000004,0.,0.,-0.0000001,5.8054
 907,0.,-3.515837,0.,0.,1.4642786,0.,0.,0.,0.,1.3769308,0.,0.,0.8696176
 ,0.,0.,0.,0.,0.9043961,0.,7.2073956,0.,0.,1.263606,0.,0.,0.,-0.0000002
 ,0.8393277,0.,3.1051778,-1.0098286,-0.3057689,0.,0.,1.6839467,-3.67444
 81,-0.347429,2.9295789,0.,0.,-0.8501115,0.,0.,0.,3.6797741,-0.8320484,
 0.,6.6804292,1.1557415,1.6637045,0.,0.,0.9131177,2.5452285,1.7664669,1
 .2596379,0.,0.,0.5375449,0.,0.,0.,0.3066362,0.2199714,0.,1.9947976,-0.
 9964985,0.467977,0.,0.,0.2068739,-2.2257235,2.1141069,-6.0349964,0.,0.
 ,-1.0513758,0.,0.,0.,0.0388935,-0.4960522,0.,-3.1051778,-1.0098286,0.3
 057689,0.,0.,-1.6839467,-3.6744481,0.347429,2.9295789,0.,0.,-0.8501115
 ,0.,0.,0.,-3.6797741,-0.8320484,0.,-1.9947976,-0.9964985,-0.467977,0.,
 0.,-0.2068739,-2.2257235,-2.1141069,-6.0349964,0.,0.,-1.0513758,0.,0.,
 0.,-0.0388935,-0.4960522,0.,-6.6804292,1.1557415,-1.6637045,0.,0.,-0.9
 131177,2.5452285,-1.7664669,1.2596379,0.,0.,0.5375449,0.,0.,0.,-0.3066
 362,0.2199714,0.\HyperPolar=0.,30.0035978,0.,-4.9201363,0.,0.,0.,0.,0.
 2067638,0.\PG=C02V [C2(C1H1),SGV(H4N2)]\NImag=0\\0.94954962,0.00000002
 ,0.85181667,0.,0.,0.17647902,-0.06594308,0.,0.,0.07129172,0.,-0.347301
 78,0.,0.,0.36290666,0.,0.,-0.05710023,0.,0.,0.03253863,-0.41703139,0.1
 6251285,0.,0.00006554,0.00190241,0.,0.91966228,0.14421245,-0.25945006,
 0.,0.03608176,-0.00998018,0.,-0.01947755,0.86941924,0.,0.,-0.05646102,
 0.,0.,0.00867992,0.,0.,0.06049103,-0.02799842,-0.01721576,0.,0.0012287
 1,0.00020512,0.,-0.33741466,-0.17465607,0.,0.35214071,0.01668578,0.016
 73522,0.,0.00097331,0.00079865,0.,-0.17951982,-0.19322921,0.,0.1825028
 5,0.18568085,0.,0.,-0.00528838,0.,0.,-0.00427953,0.,0.,-0.01162657,0.,
 0.,0.01342875,0.00322655,0.03760706,0.,-0.00396857,0.00097307,0.,-0.08
 008064,0.02728541,0.,0.01080370,-0.02804689,0.,0.06986191,0.00870889,-
 0.00954259,0.,0.00093091,0.00137908,0.,0.02659785,-0.44329407,0.,0.004
 54507,-0.00880688,0.,-0.03601977,0.45957475,0.,0.,0.00206001,0.,0.,0.0
 0788041,0.,0.,-0.01784966,0.,0.,-0.00083618,0.,0.,0.01325258,-0.417031
 41,-0.16251286,0.,0.00006554,-0.00190240,0.,-0.08919845,-0.00923347,0.
 ,0.00206788,0.00675491,0.,0.00192945,-0.00550570,0.,0.91966228,-0.1442
 1247,-0.25945006,0.,-0.03608176,-0.00998018,0.,0.00923347,0.03768102,0
 .,0.00526910,-0.00154060,0.,-0.00105656,0.00039384,0.,0.01947755,0.869
 41924,0.,0.,-0.05646102,0.,0.,0.00867992,0.,0.,0.01481080,0.,0.,0.0062
 1534,0.,0.,-0.00425985,0.,0.,0.06049103,0.00322655,-0.03760705,0.,-0.0
 0396857,-0.00097307,0.,0.00192945,0.00105656,0.,-0.00012542,0.00023592
 ,0.,-0.00164697,0.00050640,0.,-0.08008064,-0.02728541,0.,0.06986191,-0
 .00870888,-0.00954260,0.,-0.00093091,0.00137908,0.,0.00550570,0.000393
 84,0.,-0.00023635,-0.00052472,0.,-0.00050640,0.00082058,0.,-0.02659785
 ,-0.44329407,0.,0.03601977,0.45957475,0.,0.,0.00206001,0.,0.,0.0078804
 1,0.,0.,-0.00425985,0.,0.,-0.00062692,0.,0.,0.00037961,0.,0.,-0.017849
 66,0.,0.,0.01325258,-0.02799843,0.01721577,0.,0.00122871,-0.00020512,0
 .,0.00206788,-0.00526910,0.,-0.00070249,0.00041395,0.,-0.00012542,0.00
 023635,0.,-0.33741466,0.17465607,0.,0.01080370,-0.00454507,0.,0.352140
 71,-0.01668578,0.01673522,0.,-0.00097331,0.00079865,0.,-0.00675491,-0.
 00154060,0.,-0.00041395,0.00088668,0.,-0.00023592,-0.00052472,0.,0.179
 51982,-0.19322921,0.,0.02804689,-0.00880688,0.,-0.18250285,0.18568085,
 0.,0.,-0.00528838,0.,0.,-0.00427953,0.,0.,0.00621534,0.,0.,0.00301349,
 0.,0.,-0.00062692,0.,0.,-0.01162657,0.,0.,-0.00083618,0.,0.,0.01342875
 \\0.,-0.00000016,0.,0.,0.00000005,0.,-0.00000006,0.00000002,0.,-0.0000
 0005,-0.00000002,0.,0.,0.00000005,0.,0.00000006,0.00000002,0.,0.,0.000
 00005,0.,0.00000005,-0.00000002,0.\\\@


 IT IS A QUALITY OF REVOLUTIONS NOT TO GO BY OLD LINES OR OLD LAWS,
 BUT TO BREAK UP BOTH, AND MAKE NEW ONES.
                                              -- A. LINCOLN (1848)
 Job cpu time:  2 days 10 hours  7 minutes  6.2 seconds.
 File lengths (MBytes):  RWF=    188 Int=      0 D2E=      0 Chk=     15 Scr=      1
 Normal termination of Gaussian 09 at Thu Feb 26 07:32:20 2015.
