 Entering Gaussian System, Link 0=g03
 Input=FORMA_b3lyp_AUG-cc-pVDZ.com
 Output=FORMA_b3lyp_AUG-cc-pVDZ.log
 Initial command:
 /apps/gaussian/g09_c01/g09/l1.exe /tmp/pbs.8910276.cx1b/Gau-17241.inp -scrdir=/tmp/pbs.8910276.cx1b/
 Entering Link 1 = /apps/gaussian/g09_c01/g09/l1.exe PID=     17249.
  
 Copyright (c) 1988,1990,1992,1993,1995,1998,2003,2009,2011,
            Gaussian, Inc.  All Rights Reserved.
  
 This is part of the Gaussian(R) 09 program.  It is based on
 the Gaussian(R) 03 system (copyright 2003, Gaussian, Inc.),
 the Gaussian(R) 98 system (copyright 1998, Gaussian, Inc.),
 the Gaussian(R) 94 system (copyright 1995, Gaussian, Inc.),
 the Gaussian 92(TM) system (copyright 1992, Gaussian, Inc.),
 the Gaussian 90(TM) system (copyright 1990, Gaussian, Inc.),
 the Gaussian 88(TM) system (copyright 1988, Gaussian, Inc.),
 the Gaussian 86(TM) system (copyright 1986, Carnegie Mellon
 University), and the Gaussian 82(TM) system (copyright 1983,
 Carnegie Mellon University). Gaussian is a federally registered
 trademark of Gaussian, Inc.
  
 This software contains proprietary and confidential information,
 including trade secrets, belonging to Gaussian, Inc.
  
 This software is provided under written license and may be
 used, copied, transmitted, or stored only in accord with that
 written license.
  
 The following legend is applicable only to US Government
 contracts under FAR:
  
                    RESTRICTED RIGHTS LEGEND
  
 Use, reproduction and disclosure by the US Government is
 subject to restrictions as set forth in subparagraphs (a)
 and (c) of the Commercial Computer Software - Restricted
 Rights clause in FAR 52.227-19.
  
 Gaussian, Inc.
 340 Quinnipiac St., Bldg. 40, Wallingford CT 06492
  
  
 ---------------------------------------------------------------
 Warning -- This program may not be used in any manner that
 competes with the business of Gaussian, Inc. or will provide
 assistance to any competitor of Gaussian, Inc.  The licensee
 of this program is prohibited from giving any competitor of
 Gaussian, Inc. access to this program.  By using this program,
 the user acknowledges that Gaussian, Inc. is engaged in the
 business of creating and licensing software in the field of
 computational chemistry and represents and warrants to the
 licensee that it is not a competitor of Gaussian, Inc. and that
 it will not use this program in any manner prohibited above.
 ---------------------------------------------------------------
  

 Cite this work as:
 Gaussian 09, Revision C.01,
 M. J. Frisch, G. W. Trucks, H. B. Schlegel, G. E. Scuseria, 
 M. A. Robb, J. R. Cheeseman, G. Scalmani, V. Barone, B. Mennucci, 
 G. A. Petersson, H. Nakatsuji, M. Caricato, X. Li, H. P. Hratchian, 
 A. F. Izmaylov, J. Bloino, G. Zheng, J. L. Sonnenberg, M. Hada, 
 M. Ehara, K. Toyota, R. Fukuda, J. Hasegawa, M. Ishida, T. Nakajima, 
 Y. Honda, O. Kitao, H. Nakai, T. Vreven, J. A. Montgomery, Jr., 
 J. E. Peralta, F. Ogliaro, M. Bearpark, J. J. Heyd, E. Brothers, 
 K. N. Kudin, V. N. Staroverov, T. Keith, R. Kobayashi, J. Normand, 
 K. Raghavachari, A. Rendell, J. C. Burant, S. S. Iyengar, J. Tomasi, 
 M. Cossi, N. Rega, J. M. Millam, M. Klene, J. E. Knox, J. B. Cross, 
 V. Bakken, C. Adamo, J. Jaramillo, R. Gomperts, R. E. Stratmann, 
 O. Yazyev, A. J. Austin, R. Cammi, C. Pomelli, J. W. Ochterski, 
 R. L. Martin, K. Morokuma, V. G. Zakrzewski, G. A. Voth, 
 P. Salvador, J. J. Dannenberg, S. Dapprich, A. D. Daniels, 
 O. Farkas, J. B. Foresman, J. V. Ortiz, J. Cioslowski, 
 and D. J. Fox, Gaussian, Inc., Wallingford CT, 2010.
 
 ******************************************
 Gaussian 09:  EM64L-G09RevC.01 23-Sep-2011
                26-Feb-2015 
 ******************************************
 %Chk=FORMA_b3lyp_AUG-cc-pVDZ.chk
 %Mem=8Gb
 %nproc=8
 Will use up to    8 processors via shared memory.
 ----------------------------------------------------------------------
 #p opt(VeryTight,CalcAll,Raman) Integral(Grid=UltraFine) b3lyp/AUG-cc-
 pVDZ
 ----------------------------------------------------------------------
 1/7=1,10=4,14=-1,18=20,19=15,26=3,38=1/1,3;
 2/9=110,12=2,17=6,18=5,40=1/2;
 3/5=16,7=10,11=2,16=1,25=1,30=1,71=2,74=-5,75=-5/1,2,3;
 4//1;
 5/5=2,38=5/2;
 8/6=4,10=90,11=11/1;
 10/13=10,15=4/2;
 11/6=3,8=1,9=11,15=111,16=1/1,2,10;
 10/6=1/2;
 6/7=2,8=2,9=2,10=2,18=1,28=1/1;
 7/10=1,25=1/1,2,3,16;
 1/7=1,10=4,14=-1,18=20,19=15/3(3);
 2/9=110/2;
 7/8=1,9=1,25=1,44=-1/16;
 99//99;
 2/9=110/2;
 3/5=16,7=10,11=2,16=1,25=1,30=1,71=2,74=-5,75=-5/1,2,3;
 4/5=5,16=3/1;
 5/5=2,38=5/2;
 8/6=4,10=90,11=11/1;
 10/13=10,15=4/2;
 11/6=3,8=1,9=11,15=111,16=1/1,2,10;
 10/6=1/2;
 7/10=1,25=1/1,2,3,16;
 1/7=1,10=4,14=-1,18=20,19=15/3(-9);
 2/9=110/2;
 6/7=2,8=2,9=2,10=2,18=1,19=2,28=1/1;
 7/8=1,9=1,25=1,44=-1/16;
 99//99;
 Leave Link    1 at Thu Feb 26 00:03:44 2015, MaxMem= 1073741824 cpu:       0.3
 (Enter /apps/gaussian/g09_c01/g09/l101.exe)
 ----------------------------------------------
 Autjob by noodles.sh | Great noodly basis sets
 ----------------------------------------------
 Charge =  1 Multiplicity = 1
 Symbolic Z-Matrix:
 C                     0.        0.42727   0. 
 H                     0.        1.51386   0. 
 N                     1.16818  -0.17499   0. 
 H                     2.0221    0.37151   0. 
 H                     1.27341  -1.18533   0. 
 N                    -1.16818  -0.17499   0. 
 H                    -1.27341  -1.18533   0. 
 H                    -2.0221    0.37151   0. 
 
 NAtoms=      8 NQM=        0 NQMF=       0 NMMI=      8 NMMIF=      0
                NMic=       0 NMicF=      0.
                    Isotopes and Nuclear Properties:
 (Nuclear quadrupole moments (NQMom) in fm**2, nuclear magnetic moments (NMagM)
  in nuclear magnetons)

  Atom         1           2           3           4           5           6           7           8
 IAtWgt=          12           1          14           1           1          14           1           1
 AtmWgt=  12.0000000   1.0078250  14.0030740   1.0078250   1.0078250  14.0030740   1.0078250   1.0078250
 NucSpn=           0           1           2           1           1           2           1           1
 AtZEff=   0.0000000   0.0000000   0.0000000   0.0000000   0.0000000   0.0000000   0.0000000   0.0000000
 NQMom=    0.0000000   0.0000000   2.0440000   0.0000000   0.0000000   2.0440000   0.0000000   0.0000000
 NMagM=    0.0000000   2.7928460   0.4037610   2.7928460   2.7928460   0.4037610   2.7928460   2.7928460
 Leave Link  101 at Thu Feb 26 00:03:44 2015, MaxMem= 1073741824 cpu:       0.9
 (Enter /apps/gaussian/g09_c01/g09/l103.exe)

 GradGradGradGradGradGradGradGradGradGradGradGradGradGradGradGradGradGrad
 Berny optimization.
 Initialization pass.
                           ----------------------------
                           !    Initial Parameters    !
                           ! (Angstroms and Degrees)  !
 --------------------------                            --------------------------
 ! Name  Definition              Value          Derivative Info.                !
 --------------------------------------------------------------------------------
 ! R1    R(1,2)                  1.0866         calculate D2E/DX2 analytically  !
 ! R2    R(1,3)                  1.3143         calculate D2E/DX2 analytically  !
 ! R3    R(1,6)                  1.3143         calculate D2E/DX2 analytically  !
 ! R4    R(3,4)                  1.0138         calculate D2E/DX2 analytically  !
 ! R5    R(3,5)                  1.0158         calculate D2E/DX2 analytically  !
 ! R6    R(6,7)                  1.0158         calculate D2E/DX2 analytically  !
 ! R7    R(6,8)                  1.0138         calculate D2E/DX2 analytically  !
 ! A1    A(2,1,3)              117.2736         calculate D2E/DX2 analytically  !
 ! A2    A(2,1,6)              117.2736         calculate D2E/DX2 analytically  !
 ! A3    A(3,1,6)              125.4529         calculate D2E/DX2 analytically  !
 ! A4    A(1,3,4)              120.1077         calculate D2E/DX2 analytically  !
 ! A5    A(1,3,5)              123.2199         calculate D2E/DX2 analytically  !
 ! A6    A(4,3,5)              116.6724         calculate D2E/DX2 analytically  !
 ! A7    A(1,6,7)              123.2199         calculate D2E/DX2 analytically  !
 ! A8    A(1,6,8)              120.1077         calculate D2E/DX2 analytically  !
 ! A9    A(7,6,8)              116.6724         calculate D2E/DX2 analytically  !
 ! D1    D(2,1,3,4)              0.0            calculate D2E/DX2 analytically  !
 ! D2    D(2,1,3,5)            180.0            calculate D2E/DX2 analytically  !
 ! D3    D(6,1,3,4)            180.0            calculate D2E/DX2 analytically  !
 ! D4    D(6,1,3,5)              0.0            calculate D2E/DX2 analytically  !
 ! D5    D(2,1,6,7)            180.0            calculate D2E/DX2 analytically  !
 ! D6    D(2,1,6,8)              0.0            calculate D2E/DX2 analytically  !
 ! D7    D(3,1,6,7)              0.0            calculate D2E/DX2 analytically  !
 ! D8    D(3,1,6,8)            180.0            calculate D2E/DX2 analytically  !
 --------------------------------------------------------------------------------
 Trust Radius=3.00D-01 FncErr=1.00D-07 GrdErr=1.00D-06
 Number of steps in this run=     34 maximum allowed number of steps=    100.
 GradGradGradGradGradGradGradGradGradGradGradGradGradGradGradGradGradGrad

 Leave Link  103 at Thu Feb 26 00:03:45 2015, MaxMem= 1073741824 cpu:       0.0
 (Enter /apps/gaussian/g09_c01/g09/l202.exe)
                          Input orientation:                          
 ---------------------------------------------------------------------
 Center     Atomic      Atomic             Coordinates (Angstroms)
 Number     Number       Type             X           Y           Z
 ---------------------------------------------------------------------
      1          6           0        0.000000    0.427270    0.000000
      2          1           0        0.000000    1.513864    0.000000
      3          7           0        1.168180   -0.174990    0.000000
      4          1           0        2.022103    0.371511    0.000000
      5          1           0        1.273414   -1.185325    0.000000
      6          7           0       -1.168180   -0.174990    0.000000
      7          1           0       -1.273414   -1.185325    0.000000
      8          1           0       -2.022103    0.371511    0.000000
 ---------------------------------------------------------------------
                    Distance matrix (angstroms):
                    1          2          3          4          5
     1  C    0.000000
     2  H    1.086594   0.000000
     3  N    1.314291   2.053502   0.000000
     4  H    2.022872   2.322471   1.013828   0.000000
     5  H    2.054762   2.984494   1.015801   1.727505   0.000000
     6  N    1.314291   2.053502   2.336360   3.236753   2.642377
     7  H    2.054762   2.984494   2.642377   3.644746   2.546828
     8  H    2.022872   2.322471   3.236753   4.044206   3.644746
                    6          7          8
     6  N    0.000000
     7  H    1.015801   0.000000
     8  H    1.013828   1.727505   0.000000
 Stoichiometry    CH5N2(1+)
 Framework group  C2V[C2(CH),SGV(H4N2)]
 Deg. of freedom     7
 Full point group                 C2V     NOp   4
 Largest Abelian subgroup         C2V     NOp   4
 Largest concise Abelian subgroup C2      NOp   2
                         Standard orientation:                         
 ---------------------------------------------------------------------
 Center     Atomic      Atomic             Coordinates (Angstroms)
 Number     Number       Type             X           Y           Z
 ---------------------------------------------------------------------
      1          6           0        0.000000    0.000000    0.427270
      2          1           0        0.000000    0.000000    1.513864
      3          7           0        0.000000    1.168180   -0.174990
      4          1           0        0.000000    2.022103    0.371511
      5          1           0        0.000000    1.273414   -1.185325
      6          7           0        0.000000   -1.168180   -0.174990
      7          1           0        0.000000   -1.273414   -1.185325
      8          1           0        0.000000   -2.022103    0.371511
 ---------------------------------------------------------------------
 Rotational constants (GHZ):     59.6815563     10.1627081      8.6839806
 Leave Link  202 at Thu Feb 26 00:03:45 2015, MaxMem= 1073741824 cpu:       0.0
 (Enter /apps/gaussian/g09_c01/g09/l301.exe)
 Standard basis: Aug-CC-pVDZ (5D, 7F)
 Ernie: Thresh=  0.10000D-02 Tol=  0.10000D-05 Strict=F.
 Ernie:  6 primitive shells out of 110 were deleted.
 There are    46 symmetry adapted basis functions of A1  symmetry.
 There are    13 symmetry adapted basis functions of A2  symmetry.
 There are    18 symmetry adapted basis functions of B1  symmetry.
 There are    37 symmetry adapted basis functions of B2  symmetry.
 Integral buffers will be    131072 words long.
 Raffenetti 2 integral format.
 Two-electron integral symmetry is turned on.
   114 basis functions,   184 primitive gaussians,   120 cartesian basis functions
    12 alpha electrons       12 beta electrons
       nuclear repulsion energy        79.4241064683 Hartrees.
 IExCor=  402 DFT=T Ex+Corr=B3LYP ExCW=0 ScaHFX=  0.200000
 ScaDFX=  0.800000  0.720000  1.000000  0.810000 ScalE2=  1.000000  1.000000
 IRadAn=      5 IRanWt=     -1 IRanGd=            0 ICorTp=0
 NAtoms=    8 NActive=    8 NUniq=    5 SFac= 2.56D+00 NAtFMM=   60 NAOKFM=F Big=F
 Leave Link  301 at Thu Feb 26 00:03:45 2015, MaxMem= 1073741824 cpu:       0.3
 (Enter /apps/gaussian/g09_c01/g09/l302.exe)
 NPDir=0 NMtPBC=     1 NCelOv=     1 NCel=       1 NClECP=     1 NCelD=      1
         NCelK=      1 NCelE2=     1 NClLst=     1 CellRange=     0.0.
 One-electron integrals computed using PRISM.
 One-electron integral symmetry used in STVInt
 NBasis=   114 RedAO= T  NBF=    46    13    18    37
 NBsUse=   114 1.00D-06 NBFU=    46    13    18    37
 Precomputing XC quadrature grid using
 IXCGrd= 2 IRadAn=           5 IRanWt=          -1 IRanGd=           0 AccXCQ= 0.00D+00.
 NRdTot=     686 NPtTot=      183350 NUsed=      188269 NTot=      188301
 NSgBfM=   120   120   120   120   120 NAtAll=     8     8.
 Leave Link  302 at Thu Feb 26 00:03:45 2015, MaxMem= 1073741824 cpu:       1.2
 (Enter /apps/gaussian/g09_c01/g09/l303.exe)
 DipDrv:  MaxL=1.
 Leave Link  303 at Thu Feb 26 00:03:46 2015, MaxMem= 1073741824 cpu:       0.2
 (Enter /apps/gaussian/g09_c01/g09/l401.exe)
 Harris functional with IExCor=  402 diagonalized for initial guess.
 ExpMin= 2.97D-02 ExpMax= 9.05D+03 ExpMxC= 3.09D+02 IAcc=3 IRadAn=         5 AccDes= 0.00D+00
 HarFok:  IExCor=  402 AccDes= 0.00D+00 IRadAn=         5 IDoV= 1
 ScaDFX=  1.000000  1.000000  1.000000  1.000000
 FoFCou: FMM=F IPFlag=           0 FMFlag=      100000 FMFlg1=           0
         NFxFlg=           0 DoJE=T BraDBF=F KetDBF=T FulRan=T
         Omega=  0.000000  0.000000  1.000000  0.000000  0.000000 ICntrl=     500 IOpCl=  0
         NMat0=    1 NMatS0=    1 NMatT0=    0 NMatD0=    1 NMtDS0=    0 NMtDT0=    0
         I1Cent=           4 NGrid=           0.
 Petite list used in FoFCou.
 Harris En= -150.444063394665    
 Initial guess orbital symmetries:
       Occupied  (B2) (A1) (A1) (A1) (B2) (A1) (A1) (B2) (B2) (A1)
                 (B1) (A2)
       Virtual   (B1) (A1) (B2) (A1) (B2) (A1) (B1) (A1) (B2) (A1)
                 (A1) (A2) (B2) (A1) (B1) (B2) (A1) (B2) (A1) (A1)
                 (B1) (B2) (B2) (A1) (A2) (B1) (A1) (B2) (B2) (A1)
                 (A2) (B1) (A1) (A1) (A1) (B2) (A1) (A2) (B1) (B2)
                 (A1) (B2) (B2) (A1) (B1) (B2) (A1) (B2) (B2) (A1)
                 (A2) (A1) (B1) (A2) (B2) (B1) (A1) (A1) (B2) (A2)
                 (A1) (B1) (B2) (A1) (B1) (B2) (A1) (A2) (B2) (A1)
                 (B1) (A2) (A1) (B1) (B2) (B2) (A2) (A1) (A1) (B1)
                 (B2) (A1) (B2) (A1) (B2) (A1) (B2) (A1) (B1) (A2)
                 (B2) (B1) (A2) (A1) (B2) (A1) (B2) (A1) (B2) (A1)
                 (B2) (A1)
 The electronic state of the initial guess is 1-A1.
 Leave Link  401 at Thu Feb 26 00:03:46 2015, MaxMem= 1073741824 cpu:       1.8
 (Enter /apps/gaussian/g09_c01/g09/l502.exe)
 Closed shell SCF:
 Requested convergence on RMS density matrix=1.00D-08 within 128 cycles.
 Requested convergence on MAX density matrix=1.00D-06.
 Requested convergence on             energy=1.00D-06.
 No special actions if energy rises.
 Using DIIS extrapolation, IDIIS=  1040.
 Integral symmetry usage will be decided dynamically.
       188184 words used for storage of precomputed grid.
 Keep R1 ints in memory in canonical form, NReq=27554120.
 IEnd=      251662 IEndB=      251662 NGot=  1073741824 MDV=  1047163865
 LenX=  1047163865 LenY=  1047149024
 Symmetry not used in FoFDir.
 MinBra= 0 MaxBra= 2 Meth= 1.
 IRaf=       0 NMat=   1 IRICut=       1 DoRegI=T DoRafI=F ISym2E= 0 JSym2E=0.

 Cycle   1  Pass 1  IDiag  1:
 E= -150.363540696058    
 DIIS: error= 2.52D-02 at cycle   1 NSaved=   1.
 NSaved= 1 IEnMin= 1 EnMin= -150.363540696058     IErMin= 1 ErrMin= 2.52D-02
 ErrMax= 2.52D-02 EMaxC= 1.00D-01 BMatC= 6.04D-02 BMatP= 6.04D-02
 IDIUse=3 WtCom= 7.48D-01 WtEn= 2.52D-01
 Coeff-Com:  0.100D+01
 Coeff-En:   0.100D+01
 Coeff:      0.100D+01
 Gap=     0.231 Goal=   None    Shift=    0.000
 GapD=    0.231 DampG=1.000 DampE=0.500 DampFc=0.5000 IDamp=-1.
 Damping current iteration by 5.00D-01
 RMSDP=4.53D-03 MaxDP=1.21D-01              OVMax= 1.22D-01

 Cycle   2  Pass 1  IDiag  1:
 E= -150.381339259301     Delta-E=       -0.017798563243 Rises=F Damp=T
 DIIS: error= 4.85D-03 at cycle   2 NSaved=   2.
 NSaved= 2 IEnMin= 2 EnMin= -150.381339259301     IErMin= 2 ErrMin= 4.85D-03
 ErrMax= 4.85D-03 EMaxC= 1.00D-01 BMatC= 3.09D-03 BMatP= 6.04D-02
 IDIUse=3 WtCom= 9.51D-01 WtEn= 4.85D-02
 Coeff-Com:  0.103D+00 0.897D+00
 Coeff-En:   0.219D+00 0.781D+00
 Coeff:      0.108D+00 0.892D+00
 Gap=     0.280 Goal=   None    Shift=    0.000
 RMSDP=2.33D-03 MaxDP=8.87D-02 DE=-1.78D-02 OVMax= 9.29D-02

 Cycle   3  Pass 1  IDiag  1:
 E= -150.407797789978     Delta-E=       -0.026458530677 Rises=F Damp=F
 DIIS: error= 2.83D-03 at cycle   3 NSaved=   3.
 NSaved= 3 IEnMin= 3 EnMin= -150.407797789978     IErMin= 3 ErrMin= 2.83D-03
 ErrMax= 2.83D-03 EMaxC= 1.00D-01 BMatC= 9.35D-04 BMatP= 3.09D-03
 IDIUse=3 WtCom= 9.72D-01 WtEn= 2.83D-02
 Coeff-Com: -0.176D-01 0.313D+00 0.705D+00
 Coeff-En:   0.000D+00 0.000D+00 0.100D+01
 Coeff:     -0.171D-01 0.304D+00 0.713D+00
 Gap=     0.274 Goal=   None    Shift=    0.000
 RMSDP=3.40D-04 MaxDP=1.11D-02 DE=-2.65D-02 OVMax= 1.76D-02

 Cycle   4  Pass 1  IDiag  1:
 E= -150.408503562834     Delta-E=       -0.000705772856 Rises=F Damp=F
 DIIS: error= 1.42D-03 at cycle   4 NSaved=   4.
 NSaved= 4 IEnMin= 4 EnMin= -150.408503562834     IErMin= 4 ErrMin= 1.42D-03
 ErrMax= 1.42D-03 EMaxC= 1.00D-01 BMatC= 1.63D-04 BMatP= 9.35D-04
 IDIUse=3 WtCom= 9.86D-01 WtEn= 1.42D-02
 Coeff-Com: -0.196D-01 0.577D-01 0.348D+00 0.614D+00
 Coeff-En:   0.000D+00 0.000D+00 0.111D+00 0.889D+00
 Coeff:     -0.193D-01 0.568D-01 0.345D+00 0.618D+00
 Gap=     0.275 Goal=   None    Shift=    0.000
 RMSDP=1.07D-04 MaxDP=3.33D-03 DE=-7.06D-04 OVMax= 5.37D-03

 Cycle   5  Pass 1  IDiag  1:
 E= -150.408666639352     Delta-E=       -0.000163076518 Rises=F Damp=F
 DIIS: error= 2.03D-04 at cycle   5 NSaved=   5.
 NSaved= 5 IEnMin= 5 EnMin= -150.408666639352     IErMin= 5 ErrMin= 2.03D-04
 ErrMax= 2.03D-04 EMaxC= 1.00D-01 BMatC= 3.58D-06 BMatP= 1.63D-04
 IDIUse=3 WtCom= 9.98D-01 WtEn= 2.03D-03
 Coeff-Com: -0.620D-02 0.902D-02 0.979D-01 0.231D+00 0.668D+00
 Coeff-En:   0.000D+00 0.000D+00 0.000D+00 0.000D+00 0.100D+01
 Coeff:     -0.619D-02 0.900D-02 0.977D-01 0.231D+00 0.668D+00
 Gap=     0.275 Goal=   None    Shift=    0.000
 RMSDP=1.41D-05 MaxDP=3.58D-04 DE=-1.63D-04 OVMax= 4.62D-04

 Cycle   6  Pass 1  IDiag  1:
 E= -150.408669977670     Delta-E=       -0.000003338318 Rises=F Damp=F
 DIIS: error= 1.85D-05 at cycle   6 NSaved=   6.
 NSaved= 6 IEnMin= 6 EnMin= -150.408669977670     IErMin= 6 ErrMin= 1.85D-05
 ErrMax= 1.85D-05 EMaxC= 1.00D-01 BMatC= 3.35D-08 BMatP= 3.58D-06
 IDIUse=1 WtCom= 1.00D+00 WtEn= 0.00D+00
 Coeff-Com: -0.835D-03 0.431D-03 0.131D-01 0.409D-01 0.148D+00 0.799D+00
 Coeff:     -0.835D-03 0.431D-03 0.131D-01 0.409D-01 0.148D+00 0.799D+00
 Gap=     0.275 Goal=   None    Shift=    0.000
 RMSDP=2.06D-06 MaxDP=4.09D-05 DE=-3.34D-06 OVMax= 4.58D-05

 Cycle   7  Pass 1  IDiag  1:
 E= -150.408670009698     Delta-E=       -0.000000032027 Rises=F Damp=F
 DIIS: error= 2.45D-06 at cycle   7 NSaved=   7.
 NSaved= 7 IEnMin= 7 EnMin= -150.408670009698     IErMin= 7 ErrMin= 2.45D-06
 ErrMax= 2.45D-06 EMaxC= 1.00D-01 BMatC= 7.57D-10 BMatP= 3.35D-08
 IDIUse=1 WtCom= 1.00D+00 WtEn= 0.00D+00
 Coeff-Com:  0.518D-04-0.149D-03-0.842D-03 0.480D-03-0.103D-02 0.838D-01
 Coeff-Com:  0.918D+00
 Coeff:      0.518D-04-0.149D-03-0.842D-03 0.480D-03-0.103D-02 0.838D-01
 Coeff:      0.918D+00
 Gap=     0.275 Goal=   None    Shift=    0.000
 RMSDP=3.11D-07 MaxDP=8.27D-06 DE=-3.20D-08 OVMax= 7.00D-06

 Cycle   8  Pass 1  IDiag  1:
 E= -150.408670010445     Delta-E=       -0.000000000747 Rises=F Damp=F
 DIIS: error= 2.70D-07 at cycle   8 NSaved=   8.
 NSaved= 8 IEnMin= 8 EnMin= -150.408670010445     IErMin= 8 ErrMin= 2.70D-07
 ErrMax= 2.70D-07 EMaxC= 1.00D-01 BMatC= 1.15D-11 BMatP= 7.57D-10
 IDIUse=1 WtCom= 1.00D+00 WtEn= 0.00D+00
 Coeff-Com:  0.609D-05-0.247D-05-0.234D-03-0.390D-03-0.166D-02-0.394D-02
 Coeff-Com:  0.526D-01 0.954D+00
 Coeff:      0.609D-05-0.247D-05-0.234D-03-0.390D-03-0.166D-02-0.394D-02
 Coeff:      0.526D-01 0.954D+00
 Gap=     0.275 Goal=   None    Shift=    0.000
 RMSDP=3.25D-08 MaxDP=1.01D-06 DE=-7.47D-10 OVMax= 8.69D-07

 Cycle   9  Pass 1  IDiag  1:
 E= -150.408670010454     Delta-E=       -0.000000000010 Rises=F Damp=F
 DIIS: error= 4.14D-08 at cycle   9 NSaved=   9.
 NSaved= 9 IEnMin= 9 EnMin= -150.408670010454     IErMin= 9 ErrMin= 4.14D-08
 ErrMax= 4.14D-08 EMaxC= 1.00D-01 BMatC= 1.45D-13 BMatP= 1.15D-11
 IDIUse=1 WtCom= 1.00D+00 WtEn= 0.00D+00
 Coeff-Com: -0.828D-06 0.326D-05-0.177D-04-0.573D-04-0.188D-03-0.175D-02
 Coeff-Com: -0.944D-02 0.121D+00 0.890D+00
 Coeff:     -0.828D-06 0.326D-05-0.177D-04-0.573D-04-0.188D-03-0.175D-02
 Coeff:     -0.944D-02 0.121D+00 0.890D+00
 Gap=     0.275 Goal=   None    Shift=    0.000
 RMSDP=4.29D-09 MaxDP=1.15D-07 DE=-9.66D-12 OVMax= 1.32D-07

 SCF Done:  E(RB3LYP) =  -150.408670010     A.U. after    9 cycles
             Convg  =    0.4292D-08             -V/T =  2.0069
 KE= 1.493766163097D+02 PE=-5.025344254964D+02 EE= 1.233250327079D+02
 Leave Link  502 at Thu Feb 26 00:03:48 2015, MaxMem= 1073741824 cpu:      14.6
 (Enter /apps/gaussian/g09_c01/g09/l801.exe)
 Range of M.O.s used for correlation:     1   114
 NBasis=   114 NAE=    12 NBE=    12 NFC=     0 NFV=     0
 NROrb=    114 NOA=    12 NOB=    12 NVA=   102 NVB=   102

 **** Warning!!: The largest alpha MO coefficient is  0.23003250D+02

 Leave Link  801 at Thu Feb 26 00:03:48 2015, MaxMem= 1073741824 cpu:       0.1
 (Enter /apps/gaussian/g09_c01/g09/l1002.exe)
 Minotr:  Closed shell wavefunction.
          Direct CPHF calculation.
          Differentiating once with respect to electric field.
                with respect to dipole field.
          Electric field/nuclear overlap derivatives assumed to be zero.
          Using symmetry in CPHF.
          Requested convergence is 1.0D-08 RMS, and 1.0D-07 maximum.
          Secondary convergence is 1.0D-12 RMS, and 1.0D-12 maximum.
          NewPWx=F KeepS1=T KeepF1=T KeepIn=T MapXYZ=F SortEE=F KeepMc=T.
          MDV=    1073741756 using IRadAn=       1.
 Generate precomputed XC quadrature information.
          Keep R1 ints in memory in canonical form, NReq=27181278.
 Symmetry not used in FoFDir.
 MinBra= 0 MaxBra= 2 Meth= 1.
 IRaf=       0 NMat=   1 IRICut=       1 DoRegI=T DoRafI=F ISym2E= 0 JSym2E=0.
          Solving linear equations simultaneously, MaxMat=       0.
          There are     3 degrees of freedom in the 1st order CPHF.  IDoFFX=0.
      3 vectors produced by pass  0 Test12= 4.08D-14 3.33D-08 XBig12= 3.52D+01 5.05D+00.
 AX will form     3 AO Fock derivatives at one time.
      3 vectors produced by pass  1 Test12= 4.08D-14 3.33D-08 XBig12= 1.11D+01 1.05D+00.
      3 vectors produced by pass  2 Test12= 4.08D-14 3.33D-08 XBig12= 1.06D+00 3.18D-01.
      3 vectors produced by pass  3 Test12= 4.08D-14 3.33D-08 XBig12= 2.28D-02 3.61D-02.
      3 vectors produced by pass  4 Test12= 4.08D-14 3.33D-08 XBig12= 2.45D-03 1.18D-02.
      3 vectors produced by pass  5 Test12= 4.08D-14 3.33D-08 XBig12= 2.65D-04 4.08D-03.
      3 vectors produced by pass  6 Test12= 4.08D-14 3.33D-08 XBig12= 5.89D-06 5.78D-04.
      3 vectors produced by pass  7 Test12= 4.08D-14 3.33D-08 XBig12= 1.11D-07 1.00D-04.
      2 vectors produced by pass  8 Test12= 4.08D-14 3.33D-08 XBig12= 7.05D-10 6.47D-06.
      2 vectors produced by pass  9 Test12= 4.08D-14 3.33D-08 XBig12= 1.51D-11 1.09D-06.
      1 vectors produced by pass 10 Test12= 4.08D-14 3.33D-08 XBig12= 5.02D-14 3.98D-08.
 Inverted reduced A of dimension    29 with in-core refinement.
 End of Minotr Frequency-dependent properties file   721 does not exist.
 End of Minotr Frequency-dependent properties file   722 does not exist.
 Leave Link 1002 at Thu Feb 26 00:03:55 2015, MaxMem= 1073741824 cpu:      47.8
 (Enter /apps/gaussian/g09_c01/g09/l1101.exe)
 Using compressed storage, NAtomX=     8.
 Will process   9 centers per pass.
 Leave Link 1101 at Thu Feb 26 00:03:55 2015, MaxMem= 1073741824 cpu:       1.0
 (Enter /apps/gaussian/g09_c01/g09/l1102.exe)
 Symmetrizing basis deriv contribution to polar:
 IMax=3 JMax=2 DiffMx= 0.00D+00
 Leave Link 1102 at Thu Feb 26 00:03:55 2015, MaxMem= 1073741824 cpu:       0.2
 (Enter /apps/gaussian/g09_c01/g09/l1110.exe)
 Forming Gx(P) for the SCF density, NAtomX=     8.
 Integral derivatives from FoFDir/FoFCou, PRISM(SPDF).
 Do as many integral derivatives as possible in FoFDir.
 G2DrvN: MDV=    1073741656.
 G2DrvN: will do     9 centers at a time, making    1 passes doing MaxLOS=2.
 Calling FoFCou, ICntrl=  3107 FMM=F I1Cent=   0 AccDes= 0.00D+00.
 FoFCou: FMM=F IPFlag=           0 FMFlag=      100000 FMFlg1=           0
         NFxFlg=           0 DoJE=F BraDBF=F KetDBF=F FulRan=T
         Omega=  0.000000  0.000000  1.000000  0.000000  0.000000 ICntrl=    3107 IOpCl=  0
         NMat0=    1 NMatS0=    1 NMatT0=    0 NMatD0=    4 NMtDS0=    3 NMtDT0=    0
         I1Cent=           0 NGrid=           0.
 Petite list used in FoFCou.
 FoFDir/FoFCou used for L=0 through L=2.
 End of G2Drv Frequency-dependent properties file   721 does not exist.
 End of G2Drv Frequency-dependent properties file   722 does not exist.
 Leave Link 1110 at Thu Feb 26 00:04:01 2015, MaxMem= 1073741824 cpu:      42.2
 (Enter /apps/gaussian/g09_c01/g09/l1002.exe)
 Minotr:  Closed shell wavefunction.
          IDoAtm=11111111
          Direct CPHF calculation.
          Differentiating once with respect to electric field.
                with respect to dipole field.
          Differentiating once with respect to nuclear coordinates.
          Using symmetry in CPHF.
          Requested convergence is 1.0D-08 RMS, and 1.0D-07 maximum.
          Secondary convergence is 1.0D-12 RMS, and 1.0D-12 maximum.
          NewPWx=T KeepS1=F KeepF1=F KeepIn=T MapXYZ=F SortEE=F KeepMc=T.
          MDV=    1073741740 using IRadAn=       1.
 Generate precomputed XC quadrature information.
          Keep R1 ints in memory in canonical form, NReq=27181446.
 Symmetry not used in FoFDir.
 MinBra= 0 MaxBra= 2 Meth= 1.
 IRaf=       0 NMat=   1 IRICut=       1 DoRegI=T DoRafI=F ISym2E= 0 JSym2E=0.
          Solving linear equations simultaneously, MaxMat=       0.
          There are    18 degrees of freedom in the 1st order CPHF.  IDoFFX=4.
 Will reuse    3 saved solutions.
     15 vectors produced by pass  0 Test12= 6.80D-15 5.56D-09 XBig12= 1.67D-01 1.70D-01.
 AX will form    15 AO Fock derivatives at one time.
     15 vectors produced by pass  1 Test12= 6.80D-15 5.56D-09 XBig12= 2.00D-02 7.98D-02.
     15 vectors produced by pass  2 Test12= 6.80D-15 5.56D-09 XBig12= 2.64D-04 4.29D-03.
     15 vectors produced by pass  3 Test12= 6.80D-15 5.56D-09 XBig12= 1.92D-06 4.52D-04.
     15 vectors produced by pass  4 Test12= 6.80D-15 5.56D-09 XBig12= 4.66D-09 1.12D-05.
     14 vectors produced by pass  5 Test12= 6.80D-15 5.56D-09 XBig12= 7.44D-12 5.47D-07.
      2 vectors produced by pass  6 Test12= 6.80D-15 5.56D-09 XBig12= 5.93D-15 2.06D-08.
 Inverted reduced A of dimension    91 with in-core refinement.
 FullF1:  Do perturbations    1 to    18.
 Isotropic polarizability for W=    0.000000       27.06 Bohr**3.
 FullF1:  Do perturbations    1 to     6.
 End of Minotr Frequency-dependent properties file   721 does not exist.
 End of Minotr Frequency-dependent properties file   722 does not exist.
 Leave Link 1002 at Thu Feb 26 00:04:12 2015, MaxMem= 1073741824 cpu:      85.0
 (Enter /apps/gaussian/g09_c01/g09/l601.exe)
 Copying SCF densities to generalized density rwf, IOpCl= 0 IROHF=0.

 **********************************************************************

            Population analysis using the SCF density.

 **********************************************************************

 Orbital symmetries:
       Occupied  (B2) (A1) (A1) (A1) (B2) (A1) (A1) (B2) (B2) (A1)
                 (B1) (A2)
       Virtual   (B1) (A1) (A1) (B2) (A1) (B2) (B1) (A1) (B2) (A1)
                 (A2) (A1) (B1) (B2) (A1) (B2) (A1) (B2) (A1) (B1)
                 (A1) (B2) (B2) (A2) (A1) (B1) (A1) (B2) (B2) (A1)
                 (A2) (B1) (A1) (A1) (A1) (B2) (A2) (B1) (A1) (B2)
                 (A1) (B2) (B2) (A1) (B1) (B2) (A1) (B2) (B2) (A2)
                 (A1) (B1) (A1) (A2) (B2) (B1) (A1) (A1) (B2) (A2)
                 (A1) (B1) (B2) (A1) (B1) (B2) (A1) (A2) (B2) (A1)
                 (B1) (A2) (B1) (A1) (B2) (A2) (B2) (A1) (A1) (B1)
                 (A1) (B2) (B2) (A1) (B2) (B2) (A1) (A1) (B1) (A2)
                 (B2) (B1) (A1) (A2) (B2) (A1) (B2) (A1) (B2) (A1)
                 (B2) (A1)
 The electronic state is 1-A1.
 Alpha  occ. eigenvalues --  -14.60777 -14.60775 -10.53353  -1.22445  -1.13900
 Alpha  occ. eigenvalues --   -0.90027  -0.82063  -0.79676  -0.72959  -0.66967
 Alpha  occ. eigenvalues --   -0.64398  -0.51818
 Alpha virt. eigenvalues --   -0.24272  -0.18521  -0.15911  -0.15643  -0.10471
 Alpha virt. eigenvalues --   -0.10387  -0.10270  -0.08176  -0.06593  -0.05718
 Alpha virt. eigenvalues --   -0.04398  -0.03609  -0.02699  -0.01809  -0.01676
 Alpha virt. eigenvalues --   -0.00033  -0.00020   0.02721   0.03504   0.05298
 Alpha virt. eigenvalues --    0.06871   0.07306   0.09306   0.09410   0.10289
 Alpha virt. eigenvalues --    0.13250   0.16460   0.19514   0.20182   0.20949
 Alpha virt. eigenvalues --    0.21831   0.22364   0.24738   0.26987   0.28010
 Alpha virt. eigenvalues --    0.29818   0.30252   0.30504   0.30527   0.32820
 Alpha virt. eigenvalues --    0.34438   0.34959   0.36400   0.40777   0.41784
 Alpha virt. eigenvalues --    0.46770   0.48658   0.51980   0.57518   0.57678
 Alpha virt. eigenvalues --    0.58036   0.58374   0.59320   0.62153   0.62636
 Alpha virt. eigenvalues --    0.64482   0.72872   0.88000   0.89682   0.96012
 Alpha virt. eigenvalues --    1.01042   1.04066   1.05892   1.06806   1.13872
 Alpha virt. eigenvalues --    1.15398   1.27469   1.31242   1.41000   1.41897
 Alpha virt. eigenvalues --    1.50132   1.51033   1.53234   1.54044   1.59663
 Alpha virt. eigenvalues --    1.70688   1.72454   1.75034   1.77274   1.79955
 Alpha virt. eigenvalues --    1.82680   1.83097   1.85090   1.88397   1.92977
 Alpha virt. eigenvalues --    2.01783   2.03612   2.06667   2.15434   2.17265
 Alpha virt. eigenvalues --    2.21850   2.28514   2.34858   2.36924   2.41861
 Alpha virt. eigenvalues --    2.56841   2.69136   2.77027   2.78152   3.01832
 Alpha virt. eigenvalues --    3.03477   3.32357
          Condensed to atoms (all electrons):
              1          2          3          4          5          6
     1  C    4.928755   0.061466   0.334930  -0.197877  -0.183775   0.334930
     2  H    0.061466   1.427534  -0.114026  -0.029968   0.055099  -0.114026
     3  N    0.334930  -0.114026   5.863769   0.412742   0.402668  -0.058065
     4  H   -0.197877  -0.029968   0.412742   0.986047  -0.213118   0.025390
     5  H   -0.183775   0.055099   0.402668  -0.213118   1.043533  -0.028303
     6  N    0.334930  -0.114026  -0.058065   0.025390  -0.028303   5.863769
     7  H   -0.183775   0.055099  -0.028303  -0.004044   0.007437   0.402668
     8  H   -0.197877  -0.029968   0.025390  -0.001770  -0.004044   0.412742
              7          8
     1  C   -0.183775  -0.197877
     2  H    0.055099  -0.029968
     3  N   -0.028303   0.025390
     4  H   -0.004044  -0.001770
     5  H    0.007437  -0.004044
     6  N    0.402668   0.412742
     7  H    1.043533  -0.213118
     8  H   -0.213118   0.986047
 Mulliken atomic charges:
              1
     1  C    1.103224
     2  H   -0.311212
     3  N    0.160894
     4  H    0.022597
     5  H   -0.079496
     6  N    0.160894
     7  H   -0.079496
     8  H    0.022597
 Sum of Mulliken atomic charges =   1.00000
 Mulliken charges with hydrogens summed into heavy atoms:
              1
     1  C    0.792011
     3  N    0.103994
     6  N    0.103994
 Sum of Mulliken charges with hydrogens summed into heavy atoms =   1.00000
 APT atomic charges:
              1
     1  C    0.863416
     2  H    0.129023
     3  N   -0.576756
     4  H    0.308769
     5  H    0.271768
     6  N   -0.576756
     7  H    0.271768
     8  H    0.308769
 Sum of APT charges=   1.00000
 APT Atomic charges with hydrogens summed into heavy atoms:
              1
     1  C    0.992438
     2  H    0.000000
     3  N    0.003781
     4  H    0.000000
     5  H    0.000000
     6  N    0.003781
     7  H    0.000000
     8  H    0.000000
 Sum of APT charges=   1.00000
 Electronic spatial extent (au):  <R**2>=            159.1260
 Charge=              1.0000 electrons
 Dipole moment (field-independent basis, Debye):
    X=              0.0000    Y=              0.0000    Z=             -0.2077  Tot=              0.2077
 Quadrupole moment (field-independent basis, Debye-Ang):
   XX=            -19.2620   YY=             -4.5551   ZZ=            -10.4391
   XY=              0.0000   XZ=              0.0000   YZ=              0.0000
 Traceless Quadrupole moment (field-independent basis, Debye-Ang):
   XX=             -7.8433   YY=              6.8636   ZZ=              0.9796
   XY=              0.0000   XZ=              0.0000   YZ=              0.0000
 Octapole moment (field-independent basis, Debye-Ang**2):
  XXX=              0.0000  YYY=              0.0000  ZZZ=             -3.1821  XYY=              0.0000
  XXY=              0.0000  XXZ=             -0.0338  XZZ=              0.0000  YZZ=              0.0000
  YYZ=             -0.0967  XYZ=              0.0000
 Hexadecapole moment (field-independent basis, Debye-Ang**3):
 XXXX=            -18.1617 YYYY=            -72.8035 ZZZZ=            -24.1744 XXXY=              0.0000
 XXXZ=              0.0000 YYYX=              0.0000 YYYZ=              0.0000 ZZZX=              0.0000
 ZZZY=              0.0000 XXYY=            -27.9804 XXZZ=             -9.7356 YYZZ=            -18.3703
 XXYZ=              0.0000 YYXZ=              0.0000 ZZXY=              0.0000
 N-N= 7.942410646830D+01 E-N=-5.025344241470D+02  KE= 1.493766163097D+02
 Symmetry A1   KE= 8.855891722631D+01
 Symmetry A2   KE= 3.500874000687D+00
 Symmetry B1   KE= 2.729846438131D+00
 Symmetry B2   KE= 5.458697864456D+01
  Exact polarizability:  18.395   0.000  37.689   0.000   0.000  25.098
 Approx polarizability:  24.450   0.000  54.858   0.000   0.000  34.705
 No NMR shielding tensors so no spin-rotation constants.
 Leave Link  601 at Thu Feb 26 00:04:12 2015, MaxMem= 1073741824 cpu:       1.1
 (Enter /apps/gaussian/g09_c01/g09/l701.exe)
 Compute integral second derivatives.
 ... and contract with generalized density number  0.
 Leave Link  701 at Thu Feb 26 00:04:12 2015, MaxMem= 1073741824 cpu:       1.2
 (Enter /apps/gaussian/g09_c01/g09/l702.exe)
 L702 exits ... SP integral derivatives will be done elsewhere.
 Leave Link  702 at Thu Feb 26 00:04:12 2015, MaxMem= 1073741824 cpu:       0.1
 (Enter /apps/gaussian/g09_c01/g09/l703.exe)
 Compute integral second derivatives, UseDBF=F ICtDFT=           0.
 Integral derivatives from FoFDir, PRISM(SPDF).
 Calling FoFJK, ICntrl=    100127 FMM=F ISym2X=1 I1Cent= 0 IOpClX= 0 NMat=1 NMatS=1 NMatT=0.
 FoFCou: FMM=F IPFlag=           0 FMFlag=      100000 FMFlg1=         800
         NFxFlg=           0 DoJE=F BraDBF=F KetDBF=F FulRan=T
         Omega=  0.000000  0.000000  1.000000  0.000000  0.000000 ICntrl=  100127 IOpCl=  0
         NMat0=    1 NMatS0=    1 NMatT0=    0 NMatD0=    1 NMtDS0=    0 NMtDT0=    0
         I1Cent=           0 NGrid=           0.
 Petite list used in FoFCou.
 Leave Link  703 at Thu Feb 26 00:04:17 2015, MaxMem= 1073741824 cpu:      34.8
 (Enter /apps/gaussian/g09_c01/g09/l716.exe)
 Dipole        =-4.58653956D-17 7.59114993D-15-8.17233928D-02
 Polarizability= 1.83945711D+01-1.22376948D-12 3.76890687D+01
                -6.68520059D-12-1.32399387D-12 2.50980241D+01
 HyperPolar    = 5.15266640D-10 9.00500667D-10 2.78776267D-10
                 1.13389348D-10-3.12554553D-01-1.69294983D-11
                 3.18029317D+01 2.34182646D-10 3.99825202D-10
                -6.68231191D+00
 ***** Axes restored to original set *****
 -------------------------------------------------------------------
 Center     Atomic                   Forces (Hartrees/Bohr)
 Number     Number              X              Y              Z
 -------------------------------------------------------------------
      1        6           0.000000000   -0.001200990    0.000000000
      2        1           0.000000000    0.003082587    0.000000000
      3        7           0.001544601   -0.001583423    0.000000000
      4        1          -0.000723854    0.000230315    0.000000000
      5        1          -0.000561695    0.000412310    0.000000000
      6        7          -0.001544601   -0.001583423    0.000000000
      7        1           0.000561695    0.000412310    0.000000000
      8        1           0.000723854    0.000230315    0.000000000
 -------------------------------------------------------------------
 Cartesian Forces:  Max     0.003082587 RMS     0.000975871
 Force constants in Cartesian coordinates: 
                1             2             3             4             5 
      1  0.934449D+00
      2  0.000000D+00  0.838961D+00
      3  0.000000D+00  0.000000D+00  0.165107D+00
      4 -0.616578D-01  0.000000D+00  0.000000D+00  0.690213D-01
      5  0.000000D+00 -0.356385D+00  0.000000D+00  0.000000D+00  0.371199D+00
      6  0.000000D+00  0.000000D+00 -0.532839D-01  0.000000D+00  0.000000D+00
      7 -0.414008D+00  0.160339D+00  0.000000D+00 -0.778128D-03  0.944533D-03
      8  0.145307D+00 -0.248507D+00  0.000000D+00  0.354085D-01 -0.984407D-02
      9  0.000000D+00  0.000000D+00 -0.509747D-01  0.000000D+00  0.000000D+00
     10 -0.256882D-01 -0.175225D-01  0.000000D+00  0.104145D-02  0.229336D-03
     11  0.165043D-01  0.159013D-01  0.000000D+00  0.117510D-02  0.704479D-03
     12  0.000000D+00  0.000000D+00 -0.603539D-02  0.000000D+00  0.000000D+00
     13  0.330089D-02  0.357707D-01  0.000000D+00 -0.394510D-02  0.103541D-02
     14  0.668558D-02 -0.868143D-02  0.000000D+00  0.105909D-02  0.173287D-02
     15  0.000000D+00  0.000000D+00  0.109856D-02  0.000000D+00  0.000000D+00
     16 -0.414008D+00 -0.160339D+00  0.000000D+00 -0.778128D-03 -0.944533D-03
     17 -0.145307D+00 -0.248507D+00  0.000000D+00 -0.354085D-01 -0.984407D-02
     18  0.000000D+00  0.000000D+00 -0.509747D-01  0.000000D+00  0.000000D+00
     19  0.330089D-02 -0.357707D-01  0.000000D+00 -0.394510D-02 -0.103541D-02
     20 -0.668558D-02 -0.868143D-02  0.000000D+00 -0.105909D-02  0.173287D-02
     21  0.000000D+00  0.000000D+00  0.109856D-02  0.000000D+00  0.000000D+00
     22 -0.256882D-01  0.175225D-01  0.000000D+00  0.104145D-02 -0.229336D-03
     23 -0.165043D-01  0.159013D-01  0.000000D+00 -0.117510D-02  0.704479D-03
     24  0.000000D+00  0.000000D+00 -0.603539D-02  0.000000D+00  0.000000D+00
                6             7             8             9            10 
      6  0.301465D-01
      7  0.000000D+00  0.905876D+00
      8  0.000000D+00 -0.229113D-01  0.854042D+00
      9  0.763694D-02  0.000000D+00  0.000000D+00  0.560329D-01
     10  0.000000D+00 -0.333886D+00 -0.173085D+00  0.000000D+00  0.346462D+00
     11  0.000000D+00 -0.177501D+00 -0.191051D+00  0.000000D+00  0.180228D+00
     12 -0.401805D-02  0.000000D+00  0.000000D+00 -0.106512D-01  0.000000D+00
     13  0.000000D+00 -0.796074D-01  0.308664D-01  0.000000D+00  0.108568D-01
     14  0.000000D+00  0.294399D-01 -0.437519D+00  0.000000D+00  0.561590D-02
     15  0.794978D-02  0.000000D+00  0.000000D+00 -0.173770D-01  0.000000D+00
     16  0.000000D+00 -0.815990D-01 -0.110966D-01  0.000000D+00  0.198542D-02
     17  0.000000D+00  0.110966D-01  0.339897D-01  0.000000D+00  0.522991D-02
     18  0.763694D-02  0.000000D+00  0.000000D+00  0.130153D-01  0.000000D+00
     19  0.000000D+00  0.201736D-02  0.741013D-03  0.000000D+00 -0.109210D-03
     20  0.000000D+00  0.513854D-02  0.490020D-03  0.000000D+00 -0.222167D-03
     21  0.794978D-02  0.000000D+00  0.000000D+00 -0.361621D-02  0.000000D+00
     22  0.000000D+00  0.198542D-02 -0.522991D-02  0.000000D+00 -0.662346D-03
     23  0.000000D+00 -0.654607D-02 -0.159929D-02  0.000000D+00 -0.473485D-03
     24 -0.401805D-02  0.000000D+00  0.000000D+00  0.593395D-02  0.000000D+00
               11            12            13            14            15 
     11  0.183643D+00
     12  0.000000D+00  0.130655D-01
     13 -0.276871D-01  0.000000D+00  0.691019D-01
     14 -0.797027D-02  0.000000D+00 -0.384339D-01  0.451752D+00
     15  0.000000D+00 -0.841506D-03  0.000000D+00  0.000000D+00  0.133124D-01
     16  0.654607D-02  0.000000D+00  0.201736D-02 -0.513854D-02  0.000000D+00
     17 -0.159929D-02  0.000000D+00 -0.741013D-03  0.490020D-03  0.000000D+00
     18  0.000000D+00  0.593395D-02  0.000000D+00  0.000000D+00 -0.361621D-02
     19  0.260776D-03  0.000000D+00 -0.161517D-02  0.549811D-03  0.000000D+00
     20 -0.477136D-03  0.000000D+00 -0.549811D-03  0.672950D-03  0.000000D+00
     21  0.000000D+00 -0.588299D-03  0.000000D+00  0.000000D+00  0.623370D-04
     22  0.473485D-03  0.000000D+00 -0.109210D-03  0.222167D-03  0.000000D+00
     23  0.849491D-03  0.000000D+00 -0.260776D-03 -0.477136D-03  0.000000D+00
     24  0.000000D+00  0.313498D-02  0.000000D+00  0.000000D+00 -0.588299D-03
               16            17            18            19            20 
     16  0.905876D+00
     17  0.229113D-01  0.854042D+00
     18  0.000000D+00  0.000000D+00  0.560329D-01
     19 -0.796074D-01 -0.308664D-01  0.000000D+00  0.691019D-01
     20 -0.294399D-01 -0.437519D+00  0.000000D+00  0.384339D-01  0.451752D+00
     21  0.000000D+00  0.000000D+00 -0.173770D-01  0.000000D+00  0.000000D+00
     22 -0.333886D+00  0.173085D+00  0.000000D+00  0.108568D-01 -0.561590D-02
     23  0.177501D+00 -0.191051D+00  0.000000D+00  0.276871D-01 -0.797027D-02
     24  0.000000D+00  0.000000D+00 -0.106512D-01  0.000000D+00  0.000000D+00
               21            22            23            24 
     21  0.133124D-01
     22  0.000000D+00  0.346462D+00
     23  0.000000D+00 -0.180228D+00  0.183643D+00
     24 -0.841506D-03  0.000000D+00  0.000000D+00  0.130655D-01
 Force constants in internal coordinates: 
                1             2             3             4             5 
      1  0.371199D+00
      2  0.535772D-02  0.610809D+00
      3  0.535772D-02  0.565806D-01  0.610809D+00
      4  0.572911D-03  0.445826D-02 -0.584381D-02  0.462809D+00
      5 -0.161628D-02  0.754614D-02 -0.350038D-02 -0.103012D-02  0.455565D+00
      6 -0.161628D-02 -0.350038D-02  0.754614D-02  0.436747D-03  0.797294D-03
      7  0.572911D-03 -0.584381D-02  0.445826D-02  0.286560D-03  0.436747D-03
      8  0.353827D-02  0.882432D-02 -0.333146D-01 -0.238084D-02  0.371665D-02
      9  0.353827D-02 -0.333146D-01  0.882432D-02  0.720416D-03  0.713437D-03
     10 -0.707654D-02  0.244902D-01  0.244902D-01  0.166042D-02 -0.443008D-02
     11 -0.137380D-02  0.165085D-01  0.366012D-02  0.203901D-02 -0.752285D-02
     12  0.184763D-02  0.688147D-02 -0.104484D-02 -0.649385D-02  0.227325D-02
     13 -0.473836D-03 -0.233900D-01 -0.261528D-02  0.445484D-02  0.524960D-02
     14  0.184763D-02 -0.104484D-02  0.688147D-02 -0.193969D-03  0.972983D-03
     15 -0.137380D-02  0.366012D-02  0.165085D-01  0.205747D-03 -0.726797D-03
     16 -0.473837D-03 -0.261528D-02 -0.233900D-01 -0.117782D-04 -0.246186D-03
     17  0.000000D+00  0.000000D+00  0.000000D+00  0.000000D+00  0.000000D+00
     18  0.000000D+00  0.000000D+00  0.000000D+00  0.000000D+00  0.000000D+00
     19  0.000000D+00  0.000000D+00  0.000000D+00  0.000000D+00  0.000000D+00
     20  0.000000D+00  0.000000D+00  0.000000D+00  0.000000D+00  0.000000D+00
     21  0.000000D+00  0.000000D+00  0.000000D+00  0.000000D+00  0.000000D+00
     22  0.000000D+00  0.000000D+00  0.000000D+00  0.000000D+00  0.000000D+00
     23  0.000000D+00  0.000000D+00  0.000000D+00  0.000000D+00  0.000000D+00
     24  0.000000D+00  0.000000D+00  0.000000D+00  0.000000D+00  0.000000D+00
                6             7             8             9            10 
      6  0.455565D+00
      7 -0.103012D-02  0.462809D+00
      8  0.713437D-03  0.720416D-03  0.111762D+00
      9  0.371665D-02 -0.238084D-02 -0.369116D-01  0.111762D+00
     10 -0.443008D-02  0.166042D-02 -0.748500D-01 -0.748500D-01  0.149700D+00
     11 -0.726797D-03  0.205747D-03 -0.793598D-02 -0.404686D-02  0.119828D-01
     12  0.972983D-03 -0.193969D-03  0.923585D-02 -0.227386D-03 -0.900847D-02
     13 -0.246186D-03 -0.117782D-04 -0.129987D-02  0.427425D-02 -0.297438D-02
     14  0.227325D-02 -0.649385D-02 -0.227386D-03  0.923585D-02 -0.900847D-02
     15 -0.752285D-02  0.203901D-02 -0.404686D-02 -0.793598D-02  0.119828D-01
     16  0.524960D-02  0.445484D-02  0.427425D-02 -0.129987D-02 -0.297438D-02
     17  0.000000D+00  0.000000D+00  0.000000D+00  0.000000D+00  0.000000D+00
     18  0.000000D+00  0.000000D+00  0.000000D+00  0.000000D+00  0.000000D+00
     19  0.000000D+00  0.000000D+00  0.000000D+00  0.000000D+00  0.000000D+00
     20  0.000000D+00  0.000000D+00  0.000000D+00  0.000000D+00  0.000000D+00
     21  0.000000D+00  0.000000D+00  0.000000D+00  0.000000D+00  0.000000D+00
     22  0.000000D+00  0.000000D+00  0.000000D+00  0.000000D+00  0.000000D+00
     23  0.000000D+00  0.000000D+00  0.000000D+00  0.000000D+00  0.000000D+00
     24  0.000000D+00  0.000000D+00  0.000000D+00  0.000000D+00  0.000000D+00
               11            12            13            14            15 
     11  0.869265D-01
     12 -0.466042D-01  0.847927D-01
     13 -0.403222D-01 -0.381884D-01  0.785107D-01
     14 -0.159275D-02  0.243891D-02 -0.846157D-03  0.847927D-01
     15  0.210754D-02 -0.159275D-02 -0.514791D-03 -0.466042D-01  0.869265D-01
     16 -0.514790D-03 -0.846158D-03  0.136095D-02 -0.381884D-01 -0.403222D-01
     17  0.000000D+00  0.000000D+00  0.000000D+00  0.000000D+00  0.000000D+00
     18  0.000000D+00  0.000000D+00  0.000000D+00  0.000000D+00  0.000000D+00
     19  0.000000D+00  0.000000D+00  0.000000D+00  0.000000D+00  0.000000D+00
     20  0.000000D+00  0.000000D+00  0.000000D+00  0.000000D+00  0.000000D+00
     21  0.000000D+00  0.000000D+00  0.000000D+00  0.000000D+00  0.000000D+00
     22  0.000000D+00  0.000000D+00  0.000000D+00  0.000000D+00  0.000000D+00
     23  0.000000D+00  0.000000D+00  0.000000D+00  0.000000D+00  0.000000D+00
     24  0.000000D+00  0.000000D+00  0.000000D+00  0.000000D+00  0.000000D+00
               16            17            18            19            20 
     16  0.785107D-01
     17  0.000000D+00  0.106278D-01
     18  0.000000D+00  0.456689D-02  0.142800D-01
     19  0.000000D+00  0.395301D-02 -0.613732D-02  0.165751D-01
     20  0.000000D+00 -0.210787D-02  0.357580D-02  0.648479D-02  0.121685D-01
     21  0.000000D+00 -0.425807D-02 -0.592114D-02  0.644614D-02  0.478307D-02
     22  0.000000D+00 -0.400358D-02 -0.425807D-02  0.267118D-02  0.241668D-02
     23  0.000000D+00  0.241668D-02  0.478307D-02 -0.617597D-02 -0.380958D-02
     24  0.000000D+00  0.267118D-02  0.644614D-02 -0.995093D-02 -0.617597D-02
               21            22            23            24 
     21  0.142800D-01
     22  0.456689D-02  0.106278D-01
     23  0.357580D-02 -0.210787D-02  0.121685D-01
     24 -0.613732D-02  0.395301D-02  0.648479D-02  0.165751D-01
 Leave Link  716 at Thu Feb 26 00:04:17 2015, MaxMem= 1073741824 cpu:       0.1
 (Enter /apps/gaussian/g09_c01/g09/l103.exe)

 GradGradGradGradGradGradGradGradGradGradGradGradGradGradGradGradGradGrad
 Berny optimization.
 Red2BG is reusing G-inverse.
 Internal  Forces:  Max     0.003082587 RMS     0.000780209
 Search for a local minimum.
 Step number   1 out of a maximum of   34
 All quantities printed in internal units (Hartrees-Bohrs-Radians)
 RMS Force = .78021D-03 SwitMx=.10000D-02 MixMth= 2
 Mixed Optimization -- En-DIIS/RFO-DIIS
 Second derivative matrix not updated -- analytic derivatives used.
 ITU=  0
     Eigenvalues ---    0.01314   0.01429   0.01682   0.02081   0.04224
     Eigenvalues ---    0.11259   0.11762   0.12494   0.12919   0.14906
     Eigenvalues ---    0.22607   0.37170   0.45326   0.45693   0.46257
     Eigenvalues ---    0.46344   0.56210   0.67379
 RFO step:  Lambda=-5.02136919D-05 EMin= 1.31416976D-02
 Linear search not attempted -- first point.
 Iteration  1 RMS(Cart)=  0.00456640 RMS(Int)=  0.00000921
 Iteration  2 RMS(Cart)=  0.00000853 RMS(Int)=  0.00000000
 Iteration  3 RMS(Cart)=  0.00000000 RMS(Int)=  0.00000000
 ClnCor:  largest displacement from symmetrization is 6.16D-11 for atom     8.
 Variable       Old X    -DE/DX   Delta X   Delta X   Delta X     New X
                                 (Linear)    (Quad)   (Total)
    R1        2.05337   0.00308   0.00000   0.00814   0.00814   2.06151
    R2        2.48365   0.00066   0.00000   0.00155   0.00155   2.48520
    R3        2.48365   0.00066   0.00000   0.00155   0.00155   2.48520
    R4        1.91586  -0.00049   0.00000  -0.00112  -0.00112   1.91474
    R5        1.91959  -0.00047   0.00000  -0.00118  -0.00118   1.91841
    R6        1.91959  -0.00047   0.00000  -0.00118  -0.00118   1.91841
    R7        1.91586  -0.00049   0.00000  -0.00112  -0.00112   1.91474
    A1        2.04681   0.00055   0.00000   0.00240   0.00240   2.04921
    A2        2.04681   0.00055   0.00000   0.00240   0.00240   2.04921
    A3        2.18957  -0.00110   0.00000  -0.00480  -0.00480   2.18476
    A4        2.09627  -0.00042   0.00000  -0.00293  -0.00293   2.09334
    A5        2.15059  -0.00029   0.00000  -0.00322  -0.00322   2.14737
    A6        2.03632   0.00070   0.00000   0.00615   0.00615   2.04247
    A7        2.15059  -0.00029   0.00000  -0.00322  -0.00322   2.14737
    A8        2.09627  -0.00042   0.00000  -0.00293  -0.00293   2.09334
    A9        2.03632   0.00070   0.00000   0.00615   0.00615   2.04247
    D1        0.00000   0.00000   0.00000   0.00000   0.00000   0.00000
    D2        3.14159   0.00000   0.00000   0.00000   0.00000   3.14159
    D3        3.14159   0.00000   0.00000   0.00000   0.00000   3.14159
    D4        0.00000   0.00000   0.00000   0.00000   0.00000   0.00000
    D5        3.14159   0.00000   0.00000   0.00000   0.00000   3.14159
    D6        0.00000   0.00000   0.00000   0.00000   0.00000   0.00000
    D7        0.00000   0.00000   0.00000   0.00000   0.00000   0.00000
    D8        3.14159   0.00000   0.00000   0.00000   0.00000   3.14159
         Item               Value     Threshold  Converged?
 Maximum Force            0.003083     0.000002     NO 
 RMS     Force            0.000780     0.000001     NO 
 Maximum Displacement     0.012212     0.000006     NO 
 RMS     Displacement     0.004567     0.000004     NO 
 Predicted change in Energy=-2.511248D-05
 GradGradGradGradGradGradGradGradGradGradGradGradGradGradGradGradGradGrad

 Leave Link  103 at Thu Feb 26 00:04:17 2015, MaxMem= 1073741824 cpu:       0.0
 (Enter /apps/gaussian/g09_c01/g09/l202.exe)
                          Input orientation:                          
 ---------------------------------------------------------------------
 Center     Atomic      Atomic             Coordinates (Angstroms)
 Number     Number       Type             X           Y           Z
 ---------------------------------------------------------------------
      1          6           0        0.000000    0.429073    0.000000
      2          1           0        0.000000    1.519974    0.000000
      3          7           0        1.167459   -0.176368    0.000000
      4          1           0        2.020593    0.370265    0.000000
      5          1           0        1.266952   -1.186657    0.000000
      6          7           0       -1.167459   -0.176368    0.000000
      7          1           0       -1.266952   -1.186657    0.000000
      8          1           0       -2.020593    0.370265    0.000000
 ---------------------------------------------------------------------
                    Distance matrix (angstroms):
                    1          2          3          4          5
     1  C    0.000000
     2  H    1.090902   0.000000
     3  N    1.315112   2.059257   0.000000
     4  H    2.021449   2.324786   1.013235   0.000000
     5  H    2.053229   2.988482   1.015176   1.729735   0.000000
     6  N    1.315112   2.059257   2.334919   3.234577   2.635724
     7  H    2.053229   2.988482   2.635724   3.637576   2.533904
     8  H    2.021449   2.324786   3.234577   4.041187   3.637576
                    6          7          8
     6  N    0.000000
     7  H    1.015176   0.000000
     8  H    1.013235   1.729735   0.000000
 Stoichiometry    CH5N2(1+)
 Framework group  C2V[C2(CH),SGV(H4N2)]
 Deg. of freedom     7
 Full point group                 C2V     NOp   4
 RotChk:  IX=0 Diff= 4.12D-16
 Largest Abelian subgroup         C2V     NOp   4
 Largest concise Abelian subgroup C2      NOp   2
                         Standard orientation:                         
 ---------------------------------------------------------------------
 Center     Atomic      Atomic             Coordinates (Angstroms)
 Number     Number       Type             X           Y           Z
 ---------------------------------------------------------------------
      1          6           0        0.000000    0.000000    0.429374
      2          1           0        0.000000    0.000000    1.520275
      3          7           0        0.000000    1.167459   -0.176067
      4          1           0        0.000000    2.020593    0.370566
      5          1           0        0.000000    1.266952   -1.186356
      6          7           0        0.000000   -1.167459   -0.176067
      7          1           0        0.000000   -1.266952   -1.186356
      8          1           0        0.000000   -2.020593    0.370566
 ---------------------------------------------------------------------
 Rotational constants (GHZ):     59.2939990     10.1816534      8.6895326
 Leave Link  202 at Thu Feb 26 00:04:17 2015, MaxMem= 1073741824 cpu:       0.0
 (Enter /apps/gaussian/g09_c01/g09/l301.exe)
 Standard basis: Aug-CC-pVDZ (5D, 7F)
 Ernie: Thresh=  0.10000D-02 Tol=  0.10000D-05 Strict=F.
 Ernie:  6 primitive shells out of 110 were deleted.
 There are    46 symmetry adapted basis functions of A1  symmetry.
 There are    13 symmetry adapted basis functions of A2  symmetry.
 There are    18 symmetry adapted basis functions of B1  symmetry.
 There are    37 symmetry adapted basis functions of B2  symmetry.
 Integral buffers will be    131072 words long.
 Raffenetti 2 integral format.
 Two-electron integral symmetry is turned on.
   114 basis functions,   184 primitive gaussians,   120 cartesian basis functions
    12 alpha electrons       12 beta electrons
       nuclear repulsion energy        79.4101385720 Hartrees.
 IExCor=  402 DFT=T Ex+Corr=B3LYP ExCW=0 ScaHFX=  0.200000
 ScaDFX=  0.800000  0.720000  1.000000  0.810000 ScalE2=  1.000000  1.000000
 IRadAn=      5 IRanWt=     -1 IRanGd=            0 ICorTp=0
 NAtoms=    8 NActive=    8 NUniq=    5 SFac= 2.56D+00 NAtFMM=   60 NAOKFM=F Big=F
 Leave Link  301 at Thu Feb 26 00:04:17 2015, MaxMem= 1073741824 cpu:       0.3
 (Enter /apps/gaussian/g09_c01/g09/l302.exe)
 NPDir=0 NMtPBC=     1 NCelOv=     1 NCel=       1 NClECP=     1 NCelD=      1
         NCelK=      1 NCelE2=     1 NClLst=     1 CellRange=     0.0.
 One-electron integrals computed using PRISM.
 One-electron integral symmetry used in STVInt
 NBasis=   114 RedAO= T  NBF=    46    13    18    37
 NBsUse=   114 1.00D-06 NBFU=    46    13    18    37
 Precomputing XC quadrature grid using
 IXCGrd= 2 IRadAn=           5 IRanWt=          -1 IRanGd=           0 AccXCQ= 0.00D+00.
 NRdTot=     686 NPtTot=      183350 NUsed=      188269 NTot=      188301
 NSgBfM=   120   120   120   120   120 NAtAll=     8     8.
 Leave Link  302 at Thu Feb 26 00:04:17 2015, MaxMem= 1073741824 cpu:       1.1
 (Enter /apps/gaussian/g09_c01/g09/l303.exe)
 DipDrv:  MaxL=1.
 Leave Link  303 at Thu Feb 26 00:04:18 2015, MaxMem= 1073741824 cpu:       0.2
 (Enter /apps/gaussian/g09_c01/g09/l401.exe)
 Initial guess read from the read-write file.
 B after Tr=     0.000000    0.000000    0.000000
         Rot=    1.000000    0.000000    0.000000    0.000000 Ang=   0.00 deg.
 Guess basis will be translated and rotated to current coordinates.
 Initial guess orbital symmetries:
       Occupied  (B2) (A1) (A1) (A1) (B2) (A1) (A1) (B2) (B2) (A1)
                 (B1) (A2)
       Virtual   (B1) (A1) (A1) (B2) (A1) (B2) (B1) (A1) (B2) (A1)
                 (A2) (A1) (B1) (B2) (A1) (B2) (A1) (B2) (A1) (B1)
                 (A1) (B2) (B2) (A2) (A1) (B1) (A1) (B2) (B2) (A1)
                 (A2) (B1) (A1) (A1) (A1) (B2) (A2) (B1) (A1) (B2)
                 (A1) (B2) (B2) (A1) (B1) (B2) (A1) (B2) (B2) (A2)
                 (A1) (B1) (A1) (A2) (B2) (B1) (A1) (A1) (B2) (A2)
                 (A1) (B1) (B2) (A1) (B1) (B2) (A1) (A2) (B2) (A1)
                 (B1) (A2) (B1) (A1) (B2) (A2) (B2) (A1) (A1) (B1)
                 (A1) (B2) (B2) (A1) (B2) (B2) (A1) (A1) (B1) (A2)
                 (B2) (B1) (A1) (A2) (B2) (A1) (B2) (A1) (B2) (A1)
                 (B2) (A1)
 The electronic state of the initial guess is 1-A1.
 Leave Link  401 at Thu Feb 26 00:04:18 2015, MaxMem= 1073741824 cpu:       0.7
 (Enter /apps/gaussian/g09_c01/g09/l502.exe)
 Closed shell SCF:
 Requested convergence on RMS density matrix=1.00D-08 within 128 cycles.
 Requested convergence on MAX density matrix=1.00D-06.
 Requested convergence on             energy=1.00D-06.
 No special actions if energy rises.
 Using DIIS extrapolation, IDIIS=  1040.
 Integral symmetry usage will be decided dynamically.
       188184 words used for storage of precomputed grid.
 Keep R1 ints in memory in canonical form, NReq=27554120.
 IEnd=      251662 IEndB=      251662 NGot=  1073741824 MDV=  1047163865
 LenX=  1047163865 LenY=  1047149024
 Symmetry not used in FoFDir.
 MinBra= 0 MaxBra= 2 Meth= 1.
 IRaf=       0 NMat=   1 IRICut=       1 DoRegI=T DoRafI=F ISym2E= 0 JSym2E=0.

 Cycle   1  Pass 1  IDiag  1:
 E= -150.408676826901    
 DIIS: error= 3.56D-04 at cycle   1 NSaved=   1.
 NSaved= 1 IEnMin= 1 EnMin= -150.408676826901     IErMin= 1 ErrMin= 3.56D-04
 ErrMax= 3.56D-04 EMaxC= 1.00D-01 BMatC= 1.84D-05 BMatP= 1.84D-05
 IDIUse=3 WtCom= 9.96D-01 WtEn= 3.56D-03
 Coeff-Com:  0.100D+01
 Coeff-En:   0.100D+01
 Coeff:      0.100D+01
 Gap=     0.275 Goal=   None    Shift=    0.000
 RMSDP=1.72D-04 MaxDP=5.71D-03              OVMax= 1.65D-03

 Cycle   2  Pass 1  IDiag  1:
 E= -150.408694551588     Delta-E=       -0.000017724688 Rises=F Damp=F
 DIIS: error= 6.68D-05 at cycle   2 NSaved=   2.
 NSaved= 2 IEnMin= 2 EnMin= -150.408694551588     IErMin= 2 ErrMin= 6.68D-05
 ErrMax= 6.68D-05 EMaxC= 1.00D-01 BMatC= 6.24D-07 BMatP= 1.84D-05
 IDIUse=1 WtCom= 1.00D+00 WtEn= 0.00D+00
 Coeff-Com:  0.357D-01 0.964D+00
 Coeff:      0.357D-01 0.964D+00
 Gap=     0.275 Goal=   None    Shift=    0.000
 RMSDP=1.28D-05 MaxDP=3.87D-04 DE=-1.77D-05 OVMax= 7.80D-04

 Cycle   3  Pass 1  IDiag  1:
 E= -150.408694284590     Delta-E=        0.000000266998 Rises=F Damp=F
 DIIS: error= 8.94D-05 at cycle   3 NSaved=   3.
 NSaved= 3 IEnMin= 2 EnMin= -150.408694551588     IErMin= 2 ErrMin= 6.68D-05
 ErrMax= 8.94D-05 EMaxC= 1.00D-01 BMatC= 1.06D-06 BMatP= 6.24D-07
 IDIUse=1 WtCom= 1.00D+00 WtEn= 0.00D+00
 Coeff-Com: -0.978D-02 0.573D+00 0.437D+00
 Coeff:     -0.978D-02 0.573D+00 0.437D+00
 Gap=     0.275 Goal=   None    Shift=    0.000
 RMSDP=6.67D-06 MaxDP=2.38D-04 DE= 2.67D-07 OVMax= 4.42D-04

 Cycle   4  Pass 1  IDiag  1:
 E= -150.408695218271     Delta-E=       -0.000000933681 Rises=F Damp=F
 DIIS: error= 7.50D-06 at cycle   4 NSaved=   4.
 NSaved= 4 IEnMin= 4 EnMin= -150.408695218271     IErMin= 4 ErrMin= 7.50D-06
 ErrMax= 7.50D-06 EMaxC= 1.00D-01 BMatC= 5.91D-09 BMatP= 6.24D-07
 IDIUse=1 WtCom= 1.00D+00 WtEn= 0.00D+00
 Coeff-Com: -0.521D-02 0.112D+00 0.116D+00 0.777D+00
 Coeff:     -0.521D-02 0.112D+00 0.116D+00 0.777D+00
 Gap=     0.275 Goal=   None    Shift=    0.000
 RMSDP=7.33D-07 MaxDP=2.44D-05 DE=-9.34D-07 OVMax= 2.70D-05

 Cycle   5  Pass 1  IDiag  1:
 E= -150.408695223163     Delta-E=       -0.000000004891 Rises=F Damp=F
 DIIS: error= 1.97D-06 at cycle   5 NSaved=   5.
 NSaved= 5 IEnMin= 5 EnMin= -150.408695223163     IErMin= 5 ErrMin= 1.97D-06
 ErrMax= 1.97D-06 EMaxC= 1.00D-01 BMatC= 4.62D-10 BMatP= 5.91D-09
 IDIUse=1 WtCom= 1.00D+00 WtEn= 0.00D+00
 Coeff-Com: -0.179D-02 0.307D-01 0.367D-01 0.301D+00 0.633D+00
 Coeff:     -0.179D-02 0.307D-01 0.367D-01 0.301D+00 0.633D+00
 Gap=     0.275 Goal=   None    Shift=    0.000
 RMSDP=2.05D-07 MaxDP=3.96D-06 DE=-4.89D-09 OVMax= 5.92D-06

 Cycle   6  Pass 1  IDiag  1:
 E= -150.408695223567     Delta-E=       -0.000000000404 Rises=F Damp=F
 DIIS: error= 5.79D-07 at cycle   6 NSaved=   6.
 NSaved= 6 IEnMin= 6 EnMin= -150.408695223567     IErMin= 6 ErrMin= 5.79D-07
 ErrMax= 5.79D-07 EMaxC= 1.00D-01 BMatC= 3.56D-11 BMatP= 4.62D-10
 IDIUse=1 WtCom= 1.00D+00 WtEn= 0.00D+00
 Coeff-Com: -0.101D-03-0.134D-02 0.107D-02 0.219D-01 0.232D+00 0.747D+00
 Coeff:     -0.101D-03-0.134D-02 0.107D-02 0.219D-01 0.232D+00 0.747D+00
 Gap=     0.275 Goal=   None    Shift=    0.000
 RMSDP=4.66D-08 MaxDP=1.43D-06 DE=-4.04D-10 OVMax= 1.62D-06

 Cycle   7  Pass 1  IDiag  1:
 E= -150.408695223602     Delta-E=       -0.000000000035 Rises=F Damp=F
 DIIS: error= 6.25D-08 at cycle   7 NSaved=   7.
 NSaved= 7 IEnMin= 7 EnMin= -150.408695223602     IErMin= 7 ErrMin= 6.25D-08
 ErrMax= 6.25D-08 EMaxC= 1.00D-01 BMatC= 3.37D-13 BMatP= 3.56D-11
 IDIUse=1 WtCom= 1.00D+00 WtEn= 0.00D+00
 Coeff-Com:  0.234D-05-0.805D-03-0.159D-03 0.152D-02 0.495D-01 0.199D+00
 Coeff-Com:  0.751D+00
 Coeff:      0.234D-05-0.805D-03-0.159D-03 0.152D-02 0.495D-01 0.199D+00
 Coeff:      0.751D+00
 Gap=     0.275 Goal=   None    Shift=    0.000
 RMSDP=6.21D-09 MaxDP=1.48D-07 DE=-3.47D-11 OVMax= 1.58D-07

 SCF Done:  E(RB3LYP) =  -150.408695224     A.U. after    7 cycles
             Convg  =    0.6211D-08             -V/T =  2.0069
 KE= 1.493711901231D+02 PE=-5.025029366782D+02 EE= 1.233129127596D+02
 Leave Link  502 at Thu Feb 26 00:04:19 2015, MaxMem= 1073741824 cpu:      12.0
 (Enter /apps/gaussian/g09_c01/g09/l801.exe)
 Range of M.O.s used for correlation:     1   114
 NBasis=   114 NAE=    12 NBE=    12 NFC=     0 NFV=     0
 NROrb=    114 NOA=    12 NOB=    12 NVA=   102 NVB=   102

 **** Warning!!: The largest alpha MO coefficient is  0.23003713D+02

 Leave Link  801 at Thu Feb 26 00:04:19 2015, MaxMem= 1073741824 cpu:       0.1
 (Enter /apps/gaussian/g09_c01/g09/l1002.exe)
 Minotr:  Closed shell wavefunction.
          Direct CPHF calculation.
          Differentiating once with respect to electric field.
                with respect to dipole field.
          Electric field/nuclear overlap derivatives assumed to be zero.
          Using symmetry in CPHF.
          Requested convergence is 1.0D-08 RMS, and 1.0D-07 maximum.
          Secondary convergence is 1.0D-12 RMS, and 1.0D-12 maximum.
          NewPWx=F KeepS1=T KeepF1=T KeepIn=T MapXYZ=F SortEE=F KeepMc=T.
          MDV=    1073741756 using IRadAn=       1.
 Generate precomputed XC quadrature information.
          Keep R1 ints in memory in canonical form, NReq=27181278.
 Symmetry not used in FoFDir.
 MinBra= 0 MaxBra= 2 Meth= 1.
 IRaf=       0 NMat=   1 IRICut=       1 DoRegI=T DoRafI=F ISym2E= 0 JSym2E=0.
          Solving linear equations simultaneously, MaxMat=       0.
          There are     3 degrees of freedom in the 1st order CPHF.  IDoFFX=0.
      3 vectors produced by pass  0 Test12= 4.08D-14 3.33D-08 XBig12= 3.52D+01 5.05D+00.
 AX will form     3 AO Fock derivatives at one time.
      3 vectors produced by pass  1 Test12= 4.08D-14 3.33D-08 XBig12= 1.12D+01 1.06D+00.
      3 vectors produced by pass  2 Test12= 4.08D-14 3.33D-08 XBig12= 1.06D+00 3.18D-01.
      3 vectors produced by pass  3 Test12= 4.08D-14 3.33D-08 XBig12= 2.29D-02 3.60D-02.
      3 vectors produced by pass  4 Test12= 4.08D-14 3.33D-08 XBig12= 2.36D-03 1.16D-02.
      3 vectors produced by pass  5 Test12= 4.08D-14 3.33D-08 XBig12= 2.67D-04 4.07D-03.
      3 vectors produced by pass  6 Test12= 4.08D-14 3.33D-08 XBig12= 6.00D-06 5.86D-04.
      3 vectors produced by pass  7 Test12= 4.08D-14 3.33D-08 XBig12= 1.13D-07 1.01D-04.
      2 vectors produced by pass  8 Test12= 4.08D-14 3.33D-08 XBig12= 7.37D-10 6.61D-06.
      2 vectors produced by pass  9 Test12= 4.08D-14 3.33D-08 XBig12= 1.57D-11 1.12D-06.
      1 vectors produced by pass 10 Test12= 4.08D-14 3.33D-08 XBig12= 5.14D-14 4.04D-08.
 Inverted reduced A of dimension    29 with in-core refinement.
 End of Minotr Frequency-dependent properties file   721 does not exist.
 End of Minotr Frequency-dependent properties file   722 does not exist.
 Leave Link 1002 at Thu Feb 26 00:04:25 2015, MaxMem= 1073741824 cpu:      48.1
 (Enter /apps/gaussian/g09_c01/g09/l1101.exe)
 Using compressed storage, NAtomX=     8.
 Will process   9 centers per pass.
 Leave Link 1101 at Thu Feb 26 00:04:25 2015, MaxMem= 1073741824 cpu:       1.0
 (Enter /apps/gaussian/g09_c01/g09/l1102.exe)
 Symmetrizing basis deriv contribution to polar:
 IMax=3 JMax=2 DiffMx= 0.00D+00
 Leave Link 1102 at Thu Feb 26 00:04:25 2015, MaxMem= 1073741824 cpu:       0.2
 (Enter /apps/gaussian/g09_c01/g09/l1110.exe)
 Forming Gx(P) for the SCF density, NAtomX=     8.
 Integral derivatives from FoFDir/FoFCou, PRISM(SPDF).
 Do as many integral derivatives as possible in FoFDir.
 G2DrvN: MDV=    1073741656.
 G2DrvN: will do     9 centers at a time, making    1 passes doing MaxLOS=2.
 Calling FoFCou, ICntrl=  3107 FMM=F I1Cent=   0 AccDes= 0.00D+00.
 FoFCou: FMM=F IPFlag=           0 FMFlag=      100000 FMFlg1=           0
         NFxFlg=           0 DoJE=F BraDBF=F KetDBF=F FulRan=T
         Omega=  0.000000  0.000000  1.000000  0.000000  0.000000 ICntrl=    3107 IOpCl=  0
         NMat0=    1 NMatS0=    1 NMatT0=    0 NMatD0=    4 NMtDS0=    3 NMtDT0=    0
         I1Cent=           0 NGrid=           0.
 Petite list used in FoFCou.
 FoFDir/FoFCou used for L=0 through L=2.
 End of G2Drv Frequency-dependent properties file   721 does not exist.
 End of G2Drv Frequency-dependent properties file   722 does not exist.
 Leave Link 1110 at Thu Feb 26 00:04:31 2015, MaxMem= 1073741824 cpu:      42.4
 (Enter /apps/gaussian/g09_c01/g09/l1002.exe)
 Minotr:  Closed shell wavefunction.
          IDoAtm=11111111
          Direct CPHF calculation.
          Differentiating once with respect to electric field.
                with respect to dipole field.
          Differentiating once with respect to nuclear coordinates.
          Using symmetry in CPHF.
          Requested convergence is 1.0D-08 RMS, and 1.0D-07 maximum.
          Secondary convergence is 1.0D-12 RMS, and 1.0D-12 maximum.
          NewPWx=T KeepS1=F KeepF1=F KeepIn=T MapXYZ=F SortEE=F KeepMc=T.
          MDV=    1073741740 using IRadAn=       1.
 Generate precomputed XC quadrature information.
          Keep R1 ints in memory in canonical form, NReq=27181446.
 Symmetry not used in FoFDir.
 MinBra= 0 MaxBra= 2 Meth= 1.
 IRaf=       0 NMat=   1 IRICut=       1 DoRegI=T DoRafI=F ISym2E= 0 JSym2E=0.
          Solving linear equations simultaneously, MaxMat=       0.
          There are    18 degrees of freedom in the 1st order CPHF.  IDoFFX=4.
 Will reuse    3 saved solutions.
     15 vectors produced by pass  0 Test12= 6.80D-15 5.56D-09 XBig12= 1.66D-01 1.69D-01.
 AX will form    15 AO Fock derivatives at one time.
     15 vectors produced by pass  1 Test12= 6.80D-15 5.56D-09 XBig12= 1.99D-02 7.95D-02.
     15 vectors produced by pass  2 Test12= 6.80D-15 5.56D-09 XBig12= 2.59D-04 4.27D-03.
     15 vectors produced by pass  3 Test12= 6.80D-15 5.56D-09 XBig12= 1.88D-06 4.53D-04.
     15 vectors produced by pass  4 Test12= 6.80D-15 5.56D-09 XBig12= 4.60D-09 1.13D-05.
     13 vectors produced by pass  5 Test12= 6.80D-15 5.56D-09 XBig12= 7.32D-12 5.43D-07.
      2 vectors produced by pass  6 Test12= 6.80D-15 5.56D-09 XBig12= 5.90D-15 1.99D-08.
 Inverted reduced A of dimension    90 with in-core refinement.
 FullF1:  Do perturbations    1 to    18.
 Isotropic polarizability for W=    0.000000       27.07 Bohr**3.
 FullF1:  Do perturbations    1 to     6.
 End of Minotr Frequency-dependent properties file   721 does not exist.
 End of Minotr Frequency-dependent properties file   722 does not exist.
 Leave Link 1002 at Thu Feb 26 00:04:42 2015, MaxMem= 1073741824 cpu:      86.3
 (Enter /apps/gaussian/g09_c01/g09/l701.exe)
 Compute integral second derivatives.
 ... and contract with generalized density number  0.
 Leave Link  701 at Thu Feb 26 00:04:42 2015, MaxMem= 1073741824 cpu:       1.2
 (Enter /apps/gaussian/g09_c01/g09/l702.exe)
 L702 exits ... SP integral derivatives will be done elsewhere.
 Leave Link  702 at Thu Feb 26 00:04:42 2015, MaxMem= 1073741824 cpu:       0.1
 (Enter /apps/gaussian/g09_c01/g09/l703.exe)
 Compute integral second derivatives, UseDBF=F ICtDFT=           0.
 Integral derivatives from FoFDir, PRISM(SPDF).
 Calling FoFJK, ICntrl=    100127 FMM=F ISym2X=1 I1Cent= 0 IOpClX= 0 NMat=1 NMatS=1 NMatT=0.
 FoFCou: FMM=F IPFlag=           0 FMFlag=      100000 FMFlg1=         800
         NFxFlg=           0 DoJE=F BraDBF=F KetDBF=F FulRan=T
         Omega=  0.000000  0.000000  1.000000  0.000000  0.000000 ICntrl=  100127 IOpCl=  0
         NMat0=    1 NMatS0=    1 NMatT0=    0 NMatD0=    1 NMtDS0=    0 NMtDT0=    0
         I1Cent=           0 NGrid=           0.
 Petite list used in FoFCou.
 Leave Link  703 at Thu Feb 26 00:04:46 2015, MaxMem= 1073741824 cpu:      34.8
 (Enter /apps/gaussian/g09_c01/g09/l716.exe)
 Dipole        =-4.61578898D-17-7.88605292D-15-7.82405215D-02
 Polarizability= 1.84063598D+01 7.24288327D-13 3.76390625D+01
                 7.31634291D-13 2.96469880D-13 2.51596066D+01
 HyperPolar    = 7.14726273D-10 6.67403468D-10 2.36165885D-10
                -1.32161478D-10-3.41476891D-01-1.69387247D-11
                 3.19449974D+01 5.37262324D-10-9.17629093D-10
                -6.37243956D+00
 ***** Axes restored to original set *****
 -------------------------------------------------------------------
 Center     Atomic                   Forces (Hartrees/Bohr)
 Number     Number              X              Y              Z
 -------------------------------------------------------------------
      1        6           0.000000000   -0.000034934    0.000000000
      2        1           0.000000000    0.000037476    0.000000000
      3        7           0.000005142   -0.000001323    0.000000000
      4        1           0.000000881    0.000001302    0.000000000
      5        1          -0.000000423   -0.000001250    0.000000000
      6        7          -0.000005142   -0.000001323    0.000000000
      7        1           0.000000423   -0.000001250    0.000000000
      8        1          -0.000000881    0.000001302    0.000000000
 -------------------------------------------------------------------
 Cartesian Forces:  Max     0.000037476 RMS     0.000010586
 Force constants in Cartesian coordinates: 
                1             2             3             4             5 
      1  0.929919D+00
      2  0.000000D+00  0.830641D+00
      3  0.000000D+00  0.000000D+00  0.166488D+00
      4 -0.626486D-01  0.000000D+00  0.000000D+00  0.695548D-01
      5  0.000000D+00 -0.347549D+00  0.000000D+00  0.000000D+00  0.362223D+00
      6  0.000000D+00  0.000000D+00 -0.541659D-01  0.000000D+00  0.000000D+00
      7 -0.411188D+00  0.159129D+00  0.000000D+00 -0.563214D-03  0.869249D-03
      8  0.144678D+00 -0.248624D+00  0.000000D+00  0.350090D-01 -0.974490D-02
      9  0.000000D+00  0.000000D+00 -0.513869D-01  0.000000D+00  0.000000D+00
     10 -0.258197D-01 -0.175532D-01  0.000000D+00  0.104675D-02  0.237776D-03
     11  0.165608D-01  0.159511D-01  0.000000D+00  0.118058D-02  0.688201D-03
     12  0.000000D+00  0.000000D+00 -0.595552D-02  0.000000D+00  0.000000D+00
     13  0.337255D-02  0.358432D-01  0.000000D+00 -0.393661D-02  0.104762D-02
     14  0.668518D-02 -0.887341D-02  0.000000D+00  0.105192D-02  0.171993D-02
     15  0.000000D+00  0.000000D+00  0.118144D-02  0.000000D+00  0.000000D+00
     16 -0.411188D+00 -0.159129D+00  0.000000D+00 -0.563213D-03 -0.869248D-03
     17 -0.144678D+00 -0.248624D+00  0.000000D+00 -0.350090D-01 -0.974490D-02
     18  0.000000D+00  0.000000D+00 -0.513869D-01  0.000000D+00  0.000000D+00
     19  0.337255D-02 -0.358432D-01  0.000000D+00 -0.393661D-02 -0.104762D-02
     20 -0.668518D-02 -0.887341D-02  0.000000D+00 -0.105192D-02  0.171993D-02
     21  0.000000D+00  0.000000D+00  0.118144D-02  0.000000D+00  0.000000D+00
     22 -0.258197D-01  0.175532D-01  0.000000D+00  0.104675D-02 -0.237776D-03
     23 -0.165608D-01  0.159511D-01  0.000000D+00 -0.118058D-02  0.688201D-03
     24  0.000000D+00  0.000000D+00 -0.595552D-02  0.000000D+00  0.000000D+00
                6             7             8             9            10 
      6  0.312650D-01
      7  0.000000D+00  0.903946D+00
      8  0.000000D+00 -0.190721D-01  0.856957D+00
      9  0.753495D-02  0.000000D+00  0.000000D+00  0.556434D-01
     10  0.000000D+00 -0.335139D+00 -0.173913D+00  0.000000D+00  0.347868D+00
     11  0.000000D+00 -0.178531D+00 -0.191597D+00  0.000000D+00  0.181047D+00
     12 -0.396681D-02  0.000000D+00  0.000000D+00 -0.103209D-01  0.000000D+00
     13  0.000000D+00 -0.791217D-01  0.290212D-01  0.000000D+00  0.108899D-01
     14  0.000000D+00  0.278125D-01 -0.439864D+00  0.000000D+00  0.563141D-02
     15  0.788231D-02  0.000000D+00  0.000000D+00 -0.168899D-01  0.000000D+00
     16  0.000000D+00 -0.818495D-01 -0.111988D-01  0.000000D+00  0.192840D-02
     17  0.000000D+00  0.111988D-01  0.339819D-01  0.000000D+00  0.525085D-02
     18  0.753495D-02  0.000000D+00  0.000000D+00  0.131102D-01  0.000000D+00
     19  0.000000D+00  0.198738D-02  0.726769D-03  0.000000D+00 -0.108890D-03
     20  0.000000D+00  0.516460D-02  0.503805D-03  0.000000D+00 -0.218840D-03
     21  0.788231D-02  0.000000D+00  0.000000D+00 -0.362135D-02  0.000000D+00
     22  0.000000D+00  0.192840D-02 -0.525085D-02  0.000000D+00 -0.666127D-03
     23  0.000000D+00 -0.657088D-02 -0.161327D-02  0.000000D+00 -0.481777D-03
     24 -0.396681D-02  0.000000D+00  0.000000D+00  0.593057D-02  0.000000D+00
               11            12            13            14            15 
     11  0.183835D+00
     12  0.000000D+00  0.127800D-01
     13 -0.275727D-01  0.000000D+00  0.685634D-01
     14 -0.764294D-02  0.000000D+00 -0.367923D-01  0.453939D+00
     15  0.000000D+00 -0.100171D-02  0.000000D+00  0.000000D+00  0.129508D-01
     16  0.657088D-02  0.000000D+00  0.198738D-02 -0.516460D-02  0.000000D+00
     17 -0.161327D-02  0.000000D+00 -0.726769D-03  0.503805D-03  0.000000D+00
     18  0.000000D+00  0.593057D-02  0.000000D+00  0.000000D+00 -0.362135D-02
     19  0.263224D-03  0.000000D+00 -0.164609D-02  0.557036D-03  0.000000D+00
     20 -0.475863D-03  0.000000D+00 -0.557036D-03  0.694176D-03  0.000000D+00
     21  0.000000D+00 -0.610233D-03  0.000000D+00  0.000000D+00  0.108640D-03
     22  0.481777D-03  0.000000D+00 -0.108890D-03  0.218840D-03  0.000000D+00
     23  0.854908D-03  0.000000D+00 -0.263224D-03 -0.475863D-03  0.000000D+00
     24  0.000000D+00  0.314464D-02  0.000000D+00  0.000000D+00 -0.610233D-03
               16            17            18            19            20 
     16  0.903946D+00
     17  0.190721D-01  0.856957D+00
     18  0.000000D+00  0.000000D+00  0.556434D-01
     19 -0.791217D-01 -0.290212D-01  0.000000D+00  0.685634D-01
     20 -0.278125D-01 -0.439864D+00  0.000000D+00  0.367923D-01  0.453939D+00
     21  0.000000D+00  0.000000D+00 -0.168899D-01  0.000000D+00  0.000000D+00
     22 -0.335139D+00  0.173913D+00  0.000000D+00  0.108899D-01 -0.563141D-02
     23  0.178531D+00 -0.191597D+00  0.000000D+00  0.275727D-01 -0.764294D-02
     24  0.000000D+00  0.000000D+00 -0.103209D-01  0.000000D+00  0.000000D+00
               21            22            23            24 
     21  0.129508D-01
     22  0.000000D+00  0.347868D+00
     23  0.000000D+00 -0.181047D+00  0.183835D+00
     24 -0.100171D-02  0.000000D+00  0.000000D+00  0.127800D-01
 Force constants in internal coordinates: 
                1             2             3             4             5 
      1  0.362223D+00
      2  0.529038D-02  0.607902D+00
      3  0.529038D-02  0.567243D-01  0.607902D+00
      4  0.571485D-03  0.453206D-02 -0.582310D-02  0.464606D+00
      5 -0.160898D-02  0.752751D-02 -0.349610D-02 -0.117433D-02  0.457413D+00
      6 -0.160897D-02 -0.349610D-02  0.752751D-02  0.433738D-03  0.812951D-03
      7  0.571485D-03 -0.582310D-02  0.453206D-02  0.283195D-03  0.433738D-03
      8  0.351124D-02  0.827593D-02 -0.333880D-01 -0.240435D-02  0.371573D-02
      9  0.351124D-02 -0.333880D-01  0.827593D-02  0.725025D-03  0.761208D-03
     10 -0.702248D-02  0.251121D-01  0.251121D-01  0.167933D-02 -0.447694D-02
     11 -0.135041D-02  0.165069D-01  0.367696D-02  0.212869D-02 -0.743635D-02
     12  0.183693D-02  0.700183D-02 -0.102021D-02 -0.645261D-02  0.227822D-02
     13 -0.486519D-03 -0.235087D-01 -0.265675D-02  0.432392D-02  0.515813D-02
     14  0.183693D-02 -0.102021D-02  0.700183D-02 -0.193876D-03  0.978866D-03
     15 -0.135041D-02  0.367696D-02  0.165069D-01  0.207715D-03 -0.731475D-03
     16 -0.486519D-03 -0.265675D-02 -0.235087D-01 -0.138398D-04 -0.247390D-03
     17  0.000000D+00  0.000000D+00  0.000000D+00  0.000000D+00  0.000000D+00
     18  0.000000D+00  0.000000D+00  0.000000D+00  0.000000D+00  0.000000D+00
     19  0.000000D+00  0.000000D+00  0.000000D+00  0.000000D+00  0.000000D+00
     20  0.000000D+00  0.000000D+00  0.000000D+00  0.000000D+00  0.000000D+00
     21  0.000000D+00  0.000000D+00  0.000000D+00  0.000000D+00  0.000000D+00
     22  0.000000D+00  0.000000D+00  0.000000D+00  0.000000D+00  0.000000D+00
     23  0.000000D+00  0.000000D+00  0.000000D+00  0.000000D+00  0.000000D+00
     24  0.000000D+00  0.000000D+00  0.000000D+00  0.000000D+00  0.000000D+00
                6             7             8             9            10 
      6  0.457413D+00
      7 -0.117433D-02  0.464606D+00
      8  0.761208D-03  0.725026D-03  0.111561D+00
[...]
     66  55          2                                                 7  6  6      43        10 0          7 66  55                 
     55  43          1                                                 6  8  0      07        27 3          1 31  41                 
     98  51          2                                                 9  5  4      37        29 3          7 12  33                 
 
     XX  XX          X                                                 X  X  X      XX        XX X          X  X   X                 
     XX  X           X                                                              X         X                                      
     XX  X           X                                                                                                               
     X   X           X                                                                                                               
         X           X                                                                                                               
         X           X                                                                                                               
         X           X                                                                                                               
         X                                                                                                                           
         X                                                                                                                           
         X                                                                                                                           
         X                                                                                                                           
         X                                                                                                                           
         X                                                                                                                           
         X                                                                                                                           
         X                                                                                                                           
         X                                                                                                                           
         X                                                                                                                           
         X                                                                                                                           
         X                                                                                                                           
         X                                                                                                                           
 
 ***** Axes restored to original set *****
 -------------------------------------------------------------------
 Center     Atomic                   Forces (Hartrees/Bohr)
 Number     Number              X              Y              Z
 -------------------------------------------------------------------
      1        6           0.000000000   -0.000000187    0.000000000
      2        1           0.000000000    0.000000271    0.000000000
      3        7           0.000000066   -0.000000030    0.000000000
      4        1           0.000000005    0.000000011    0.000000000
      5        1           0.000000003   -0.000000023    0.000000000
      6        7          -0.000000066   -0.000000030    0.000000000
      7        1          -0.000000003   -0.000000023    0.000000000
      8        1          -0.000000005    0.000000011    0.000000000
 -------------------------------------------------------------------
 Cartesian Forces:  Max     0.000000271 RMS     0.000000071
 Force constants in Cartesian coordinates: 
                1             2             3             4             5 
      1  0.929915D+00
      2  0.000000D+00  0.830511D+00
      3  0.000000D+00  0.000000D+00  0.166500D+00
      4 -0.626593D-01  0.000000D+00  0.000000D+00  0.695649D-01
      5  0.000000D+00 -0.347435D+00  0.000000D+00  0.000000D+00  0.362110D+00
      6  0.000000D+00  0.000000D+00 -0.541781D-01  0.000000D+00  0.000000D+00
      7 -0.411180D+00  0.159121D+00  0.000000D+00 -0.563159D-03  0.869812D-03
      8  0.144672D+00 -0.248616D+00  0.000000D+00  0.350060D-01 -0.974565D-02
      9  0.000000D+00  0.000000D+00 -0.513868D-01  0.000000D+00  0.000000D+00
     10 -0.258198D-01 -0.175532D-01  0.000000D+00  0.104671D-02  0.237774D-03
     11  0.165605D-01  0.159509D-01  0.000000D+00  0.118080D-02  0.688148D-03
     12  0.000000D+00  0.000000D+00 -0.595587D-02  0.000000D+00  0.000000D+00
     13  0.337204D-02  0.358430D-01  0.000000D+00 -0.393634D-02  0.104768D-02
     14  0.668566D-02 -0.887341D-02  0.000000D+00  0.105177D-02  0.172000D-02
     15  0.000000D+00  0.000000D+00  0.118177D-02  0.000000D+00  0.000000D+00
     16 -0.411180D+00 -0.159121D+00  0.000000D+00 -0.563158D-03 -0.869812D-03
     17 -0.144672D+00 -0.248616D+00  0.000000D+00 -0.350060D-01 -0.974564D-02
     18  0.000000D+00  0.000000D+00 -0.513868D-01  0.000000D+00  0.000000D+00
     19  0.337203D-02 -0.358430D-01  0.000000D+00 -0.393634D-02 -0.104768D-02
     20 -0.668566D-02 -0.887341D-02  0.000000D+00 -0.105177D-02  0.172000D-02
     21  0.000000D+00  0.000000D+00  0.118177D-02  0.000000D+00  0.000000D+00
     22 -0.258198D-01  0.175532D-01  0.000000D+00  0.104671D-02 -0.237775D-03
     23 -0.165605D-01  0.159509D-01  0.000000D+00 -0.118080D-02  0.688148D-03
     24  0.000000D+00  0.000000D+00 -0.595587D-02  0.000000D+00  0.000000D+00
                6             7             8             9            10 
      6  0.312791D-01
      7  0.000000D+00  0.903927D+00
      8  0.000000D+00 -0.190648D-01  0.856949D+00
      9  0.753415D-02  0.000000D+00  0.000000D+00  0.556449D-01
     10  0.000000D+00 -0.335132D+00 -0.173913D+00  0.000000D+00  0.347861D+00
     11  0.000000D+00 -0.178532D+00 -0.191600D+00  0.000000D+00  0.181047D+00
     12 -0.396647D-02  0.000000D+00  0.000000D+00 -0.103209D-01  0.000000D+00
     13  0.000000D+00 -0.791220D-01  0.290221D-01  0.000000D+00  0.108902D-01
     14  0.000000D+00  0.278132D-01 -0.439860D+00  0.000000D+00  0.563160D-02
     15  0.788181D-02  0.000000D+00  0.000000D+00 -0.168900D-01  0.000000D+00
     16  0.000000D+00 -0.818462D-01 -0.111987D-01  0.000000D+00  0.192838D-02
     17  0.000000D+00  0.111987D-01  0.339811D-01  0.000000D+00  0.525078D-02
     18  0.753414D-02  0.000000D+00  0.000000D+00  0.131094D-01  0.000000D+00
     19  0.000000D+00  0.198737D-02  0.726833D-03  0.000000D+00 -0.108892D-03
     20  0.000000D+00  0.516451D-02  0.503850D-03  0.000000D+00 -0.218837D-03
     21  0.788181D-02  0.000000D+00  0.000000D+00 -0.362123D-02  0.000000D+00
     22  0.000000D+00  0.192838D-02 -0.525078D-02  0.000000D+00 -0.666140D-03
     23  0.000000D+00 -0.657088D-02 -0.161331D-02  0.000000D+00 -0.481772D-03
     24 -0.396647D-02  0.000000D+00  0.000000D+00  0.593049D-02  0.000000D+00
               11            12            13            14            15 
     11  0.183837D+00
     12  0.000000D+00  0.127803D-01
     13 -0.275721D-01  0.000000D+00  0.685637D-01
     14 -0.764269D-02  0.000000D+00 -0.367936D-01  0.453934D+00
     15  0.000000D+00 -0.100191D-02  0.000000D+00  0.000000D+00  0.129511D-01
     16  0.657088D-02  0.000000D+00  0.198737D-02 -0.516451D-02  0.000000D+00
     17 -0.161331D-02  0.000000D+00 -0.726833D-03  0.503850D-03  0.000000D+00
     18  0.000000D+00  0.593049D-02  0.000000D+00  0.000000D+00 -0.362123D-02
     19  0.263199D-03  0.000000D+00 -0.164605D-02  0.557025D-03  0.000000D+00
     20 -0.475870D-03  0.000000D+00 -0.557025D-03  0.694159D-03  0.000000D+00
     21  0.000000D+00 -0.610188D-03  0.000000D+00  0.000000D+00  0.108601D-03
     22  0.481772D-03  0.000000D+00 -0.108892D-03  0.218837D-03  0.000000D+00
     23  0.854884D-03  0.000000D+00 -0.263199D-03 -0.475870D-03  0.000000D+00
     24  0.000000D+00  0.314457D-02  0.000000D+00  0.000000D+00 -0.610188D-03
               16            17            18            19            20 
     16  0.903927D+00
     17  0.190648D-01  0.856949D+00
     18  0.000000D+00  0.000000D+00  0.556449D-01
     19 -0.791220D-01 -0.290221D-01  0.000000D+00  0.685637D-01
     20 -0.278132D-01 -0.439860D+00  0.000000D+00  0.367936D-01  0.453934D+00
     21  0.000000D+00  0.000000D+00 -0.168900D-01  0.000000D+00  0.000000D+00
     22 -0.335132D+00  0.173913D+00  0.000000D+00  0.108902D-01 -0.563160D-02
     23  0.178532D+00 -0.191600D+00  0.000000D+00  0.275721D-01 -0.764269D-02
     24  0.000000D+00  0.000000D+00 -0.103209D-01  0.000000D+00  0.000000D+00
               21            22            23            24 
     21  0.129511D-01
     22  0.000000D+00  0.347861D+00
     23  0.000000D+00 -0.181047D+00  0.183837D+00
     24 -0.100191D-02  0.000000D+00  0.000000D+00  0.127803D-01
 Red2BG is reusing G-inverse.
 Force constants in internal coordinates: 
                1             2             3             4             5 
      1  0.362110D+00
      2  0.529123D-02  0.607885D+00
      3  0.529123D-02  0.567221D-01  0.607885D+00
      4  0.571460D-03  0.453200D-02 -0.582305D-02  0.464602D+00
      5 -0.160903D-02  0.752785D-02 -0.349604D-02 -0.117452D-02  0.457409D+00
      6 -0.160903D-02 -0.349604D-02  0.752785D-02  0.433747D-03  0.812932D-03
      7  0.571460D-03 -0.582305D-02  0.453200D-02  0.283197D-03  0.433747D-03
      8  0.351157D-02  0.827571D-02 -0.333866D-01 -0.240450D-02  0.371558D-02
      9  0.351157D-02 -0.333866D-01  0.827571D-02  0.725217D-03  0.761243D-03
     10 -0.702314D-02  0.251109D-01  0.251109D-01  0.167929D-02 -0.447682D-02
     11 -0.135039D-02  0.165075D-01  0.367690D-02  0.212855D-02 -0.743626D-02
     12  0.183699D-02  0.700138D-02 -0.102020D-02 -0.645235D-02  0.227831D-02
     13 -0.486597D-03 -0.235089D-01 -0.265671D-02  0.432380D-02  0.515795D-02
     14  0.183699D-02 -0.102020D-02  0.700138D-02 -0.193869D-03  0.978861D-03
     15 -0.135039D-02  0.367690D-02  0.165075D-01  0.207719D-03 -0.731480D-03
     16 -0.486598D-03 -0.265671D-02 -0.235089D-01 -0.138491D-04 -0.247380D-03
     17  0.000000D+00  0.000000D+00  0.000000D+00  0.000000D+00  0.000000D+00
     18  0.000000D+00  0.000000D+00  0.000000D+00  0.000000D+00  0.000000D+00
     19  0.000000D+00  0.000000D+00  0.000000D+00  0.000000D+00  0.000000D+00
     20  0.000000D+00  0.000000D+00  0.000000D+00  0.000000D+00  0.000000D+00
     21  0.000000D+00  0.000000D+00  0.000000D+00  0.000000D+00  0.000000D+00
     22  0.000000D+00  0.000000D+00  0.000000D+00  0.000000D+00  0.000000D+00
     23  0.000000D+00  0.000000D+00  0.000000D+00  0.000000D+00  0.000000D+00
     24  0.000000D+00  0.000000D+00  0.000000D+00  0.000000D+00  0.000000D+00
                6             7             8             9            10 
      6  0.457409D+00
      7 -0.117452D-02  0.464602D+00
      8  0.761243D-03  0.725217D-03  0.111559D+00
      9  0.371558D-02 -0.240450D-02 -0.362756D-01  0.111559D+00
     10 -0.447682D-02  0.167929D-02 -0.752832D-01 -0.752832D-01  0.150566D+00
     11 -0.731480D-03  0.207719D-03 -0.796094D-02 -0.406149D-02  0.120224D-01
     12  0.978861D-03 -0.193869D-03  0.922673D-02 -0.267590D-03 -0.895914D-02
     13 -0.247380D-03 -0.138492D-04 -0.126578D-02  0.432908D-02 -0.306330D-02
     14  0.227831D-02 -0.645235D-02 -0.267590D-03  0.922673D-02 -0.895914D-02
     15 -0.743626D-02  0.212855D-02 -0.406149D-02 -0.796094D-02  0.120224D-01
     16  0.515795D-02  0.432380D-02  0.432908D-02 -0.126579D-02 -0.306330D-02
     17  0.000000D+00  0.000000D+00  0.000000D+00  0.000000D+00  0.000000D+00
     18  0.000000D+00  0.000000D+00  0.000000D+00  0.000000D+00  0.000000D+00
     19  0.000000D+00  0.000000D+00  0.000000D+00  0.000000D+00  0.000000D+00
     20  0.000000D+00  0.000000D+00  0.000000D+00  0.000000D+00  0.000000D+00
     21  0.000000D+00  0.000000D+00  0.000000D+00  0.000000D+00  0.000000D+00
     22  0.000000D+00  0.000000D+00  0.000000D+00  0.000000D+00  0.000000D+00
     23  0.000000D+00  0.000000D+00  0.000000D+00  0.000000D+00  0.000000D+00
     24  0.000000D+00  0.000000D+00  0.000000D+00  0.000000D+00  0.000000D+00
               11            12            13            14            15 
     11  0.871681D-01
     12 -0.469253D-01  0.850202D-01
     13 -0.402427D-01 -0.380949D-01  0.783376D-01
     14 -0.162997D-02  0.249991D-02 -0.869943D-03  0.850202D-01
     15  0.213979D-02 -0.162997D-02 -0.509818D-03 -0.469253D-01  0.871681D-01
     16 -0.509818D-03 -0.869943D-03  0.137976D-02 -0.380949D-01 -0.402427D-01
     17  0.000000D+00  0.000000D+00  0.000000D+00  0.000000D+00  0.000000D+00
     18  0.000000D+00  0.000000D+00  0.000000D+00  0.000000D+00  0.000000D+00
     19  0.000000D+00  0.000000D+00  0.000000D+00  0.000000D+00  0.000000D+00
     20  0.000000D+00  0.000000D+00  0.000000D+00  0.000000D+00  0.000000D+00
     21  0.000000D+00  0.000000D+00  0.000000D+00  0.000000D+00  0.000000D+00
     22  0.000000D+00  0.000000D+00  0.000000D+00  0.000000D+00  0.000000D+00
     23  0.000000D+00  0.000000D+00  0.000000D+00  0.000000D+00  0.000000D+00
     24  0.000000D+00  0.000000D+00  0.000000D+00  0.000000D+00  0.000000D+00
               16            17            18            19            20 
     16  0.783376D-01
     17  0.000000D+00  0.106272D-01
     18  0.000000D+00  0.452029D-02  0.142521D-01
     19  0.000000D+00  0.395780D-02 -0.619183D-02  0.166410D-01
     20  0.000000D+00 -0.214908D-02  0.353994D-02  0.649137D-02  0.121804D-01
     21  0.000000D+00 -0.426102D-02 -0.594505D-02  0.645110D-02  0.476707D-02
     22  0.000000D+00 -0.399563D-02 -0.426102D-02  0.267374D-02  0.240835D-02
     23  0.000000D+00  0.240835D-02  0.476707D-02 -0.623209D-02 -0.387337D-02
     24  0.000000D+00  0.267374D-02  0.645110D-02 -0.100095D-01 -0.623209D-02
               21            22            23            24 
     21  0.142521D-01
     22  0.452029D-02  0.106272D-01
     23  0.353994D-02 -0.214908D-02  0.121804D-01
     24 -0.619183D-02  0.395780D-02  0.649137D-02  0.166410D-01
 Leave Link  716 at Thu Feb 26 00:05:15 2015, MaxMem= 1073741824 cpu:       0.1
 (Enter /apps/gaussian/g09_c01/g09/l9999.exe)
 1\1\GINC-CX1-3-9-1\Freq\RB3LYP\Aug-CC-pVDZ\C1H5N2(1+)\JMF02\26-Feb-201
 5\0\\#p opt(VeryTight,CalcAll,Raman) Integral(Grid=UltraFine) b3lyp/AU
 G-cc-pVDZ\\Autjob by noodles.sh | Great noodly basis sets\\1,1\C,0.,0.
 4290588831,0.\H,0.,1.5200151557,0.\N,1.1674667111,-0.1763758823,0.\H,2
 .0205956278,0.3702681549,0.\H,1.2669629076,-1.1866662919,0.\N,-1.16746
 67111,-0.1763758823,0.\H,-1.2669629076,-1.1866662919,0.\H,-2.020595627
 8,0.3702681549,0.\\Version=EM64L-G09RevC.01\State=1-A1\HF=-150.4086952
 \RMSD=6.832e-09\RMSF=7.073e-08\ZeroPoint=0.072205\Thermal=0.0759545\Di
 pole=0.,-0.0782274,0.\DipoleDeriv=1.9116465,0.,0.,0.,0.3852904,0.,0.,0
 .,0.2906596,0.089745,0.,0.,0.,0.1443316,0.,0.,0.,0.1558491,-1.0829799,
 0.0528068,0.,0.4602101,-0.2683944,0.,0.,0.,-0.3787533,0.3871455,0.0537
 014,0.,0.1042353,0.2118901,0.,0.,0.,0.3271988,0.1951386,-0.060333,0.,-
 0.1151756,0.2916934,0.,0.,0.,0.3283001,-1.0829799,-0.0528068,0.,-0.460
 2101,-0.2683944,0.,0.,0.,-0.3787533,0.1951386,0.060333,0.,0.1151756,0.
 2916934,0.,0.,0.,0.3283001,0.3871455,-0.0537014,0.,-0.1042353,0.211890
 1,0.,0.,0.,0.3271988\Polar=37.6394249,0.,25.1604384,0.,0.,18.4065451\P
 olarDeriv=0.,1.1994586,0.,0.,0.,0.,5.7409544,0.,-3.7130001,0.,0.,1.504
 8527,0.,0.,0.,0.,1.3790181,0.,0.,0.8865948,0.,0.,0.,0.,0.8990132,0.,7.
 4709639,0.,0.,1.2447486,0.,0.,0.,0.,0.8710252,0.,3.0350242,-1.1750585,
 -0.3940325,0.,0.,1.6759118,-3.630307,-0.3410089,3.039227,0.,0.,-0.8800
 284,0.,0.,0.,3.675482,-0.8441123,0.,6.9000084,1.199935,1.6724656,0.,0.
 ,0.8933583,2.6021625,1.8462884,1.3091097,0.,0.,0.5370259,0.,0.,0.,0.38
 622,0.2229339,0.,2.0503319,-1.0679033,0.5042568,0.,0.,0.2124734,-2.291
 8394,2.2250824,-6.2273187,0.,0.,-1.0317983,0.,0.,0.,0.0134497,-0.50384
 33,0.,-3.0350242,-1.1750585,0.3940325,0.,0.,-1.6759118,-3.630307,0.341
 0089,3.039227,0.,0.,-0.8800284,0.,0.,0.,-3.675482,-0.8441123,0.,-2.050
 3319,-1.0679033,-0.5042568,0.,0.,-0.2124734,-2.2918394,-2.2250824,-6.2
 273187,0.,0.,-1.0317983,0.,0.,0.,-0.0134497,-0.5038433,0.,-6.9000084,1
 .199935,-1.6724656,0.,0.,-0.8933583,2.6021625,-1.8462884,1.3091097,0.,
 0.,0.5370259,0.,0.,0.,-0.38622,0.2229339,0.\HyperPolar=0.,31.9449134,0
 .,-6.3703753,0.,0.,0.,0.,-0.3415616,0.\PG=C02V [C2(C1H1),SGV(H4N2)]\NI
 mag=0\\0.92991493,0.,0.83051109,0.,0.,0.16649978,-0.06265931,0.,0.,0.0
 6956487,0.,-0.34743479,0.,0.,0.36210979,0.,0.,-0.05417806,0.,0.,0.0312
 7909,-0.41117999,0.15912109,0.,-0.00056316,0.00086981,0.,0.90392727,0.
 14467237,-0.24861564,0.,0.03500600,-0.00974565,0.,-0.01906476,0.856949
 14,0.,0.,-0.05138676,0.,0.,0.00753415,0.,0.,0.05564487,-0.02581985,-0.
 01755320,0.,0.00104671,0.00023777,0.,-0.33513164,-0.17391300,0.,0.3478
 6126,0.01656049,0.01595090,0.,0.00118080,0.00068815,0.,-0.17853172,-0.
 19159956,0.,0.18104666,0.18383750,0.,0.,-0.00595587,0.,0.,-0.00396647,
 0.,0.,-0.01032091,0.,0.,0.01278029,0.00337204,0.03584298,0.,-0.0039363
 4,0.00104768,0.,-0.07912201,0.02902207,0.,0.01089016,-0.02757208,0.,0.
 06856372,0.00668566,-0.00887341,0.,0.00105177,0.00172000,0.,0.02781321
 ,-0.43985991,0.,0.00563160,-0.00764269,0.,-0.03679359,0.45393387,0.,0.
 ,0.00118177,0.,0.,0.00788181,0.,0.,-0.01688997,0.,0.,-0.00100191,0.,0.
 ,0.01295112,-0.41117999,-0.15912109,0.,-0.00056316,-0.00086981,0.,-0.0
 8184622,-0.01119873,0.,0.00192838,0.00657088,0.,0.00198737,-0.00516451
 ,0.,0.90392727,-0.14467237,-0.24861564,0.,-0.03500600,-0.00974564,0.,0
 .01119873,0.03398106,0.,0.00525078,-0.00161331,0.,-0.00072683,0.000503
 85,0.,0.01906476,0.85694914,0.,0.,-0.05138677,0.,0.,0.00753414,0.,0.,0
 .01310937,0.,0.,0.00593049,0.,0.,-0.00362123,0.,0.,0.05564487,0.003372
 03,-0.03584298,0.,-0.00393634,-0.00104768,0.,0.00198737,0.00072683,0.,
 -0.00010889,0.00026320,0.,-0.00164605,0.00055703,0.,-0.07912201,-0.029
 02207,0.,0.06856372,-0.00668566,-0.00887341,0.,-0.00105177,0.00172000,
 0.,0.00516451,0.00050385,0.,-0.00021884,-0.00047587,0.,-0.00055703,0.0
 0069416,0.,-0.02781321,-0.43985991,0.,0.03679359,0.45393387,0.,0.,0.00
 118177,0.,0.,0.00788181,0.,0.,-0.00362123,0.,0.,-0.00061019,0.,0.,0.00
 010860,0.,0.,-0.01688997,0.,0.,0.01295112,-0.02581985,0.01755320,0.,0.
 00104671,-0.00023777,0.,0.00192838,-0.00525078,0.,-0.00066614,0.000481
 77,0.,-0.00010889,0.00021884,0.,-0.33513164,0.17391300,0.,0.01089016,-
 0.00563160,0.,0.34786126,-0.01656049,0.01595090,0.,-0.00118080,0.00068
 815,0.,-0.00657088,-0.00161331,0.,-0.00048177,0.00085488,0.,-0.0002632
 0,-0.00047587,0.,0.17853172,-0.19159956,0.,0.02757208,-0.00764269,0.,-
 0.18104666,0.18383750,0.,0.,-0.00595587,0.,0.,-0.00396647,0.,0.,0.0059
 3049,0.,0.,0.00314457,0.,0.,-0.00061019,0.,0.,-0.01032091,0.,0.,-0.001
 00191,0.,0.,0.01278029\\0.,0.00000019,0.,0.,-0.00000027,0.,-0.00000007
 ,0.00000003,0.,0.,-0.00000001,0.,0.,0.00000002,0.,0.00000007,0.0000000
 3,0.,0.,0.00000002,0.,0.,-0.00000001,0.\\\@


 IF YOU BELIEVE CERTAIN WORDS, YOU BELIEVE THEIR HIDDEN ARGUMENTS.
 WHEN YOU BELIEVE SOMETHING IS RIGHT OR WRONG, TRUE OR FALSE, 
 YOU BELIEVE THE ASSUMPTIONS IN THE WORDS WHICH EXPRESS THE ARGUMENTS.
 SUCH ASSUMPTIONS ARE OFTEN FULL OF HOLES, BUT REMAIN MOST PRECIOUS 
 TO THE CONVINCED.

                 -- THE OPEN-ENDED PROOF FROM THE PANOPLIA PROPHETICA
                    CHILDREN OF DUNE BY FRANK HERBERT
 Job cpu time:  0 days  0 hours 11 minutes 27.6 seconds.
 File lengths (MBytes):  RWF=     14 Int=      0 D2E=      0 Chk=      2 Scr=      1
 Normal termination of Gaussian 09 at Thu Feb 26 00:05:15 2015.
