 Entering Gaussian System, Link 0=g03
 Input=FORMA_PBEPBE_AUG-cc-pVQZ.com
 Output=FORMA_PBEPBE_AUG-cc-pVQZ.log
 Initial command:
 /apps/gaussian/g09_c01/g09/l1.exe /tmp/pbs.8910289.cx1b/Gau-25587.inp -scrdir=/tmp/pbs.8910289.cx1b/
 Entering Link 1 = /apps/gaussian/g09_c01/g09/l1.exe PID=     25592.
  
 Copyright (c) 1988,1990,1992,1993,1995,1998,2003,2009,2011,
            Gaussian, Inc.  All Rights Reserved.
  
 This is part of the Gaussian(R) 09 program.  It is based on
 the Gaussian(R) 03 system (copyright 2003, Gaussian, Inc.),
 the Gaussian(R) 98 system (copyright 1998, Gaussian, Inc.),
 the Gaussian(R) 94 system (copyright 1995, Gaussian, Inc.),
 the Gaussian 92(TM) system (copyright 1992, Gaussian, Inc.),
 the Gaussian 90(TM) system (copyright 1990, Gaussian, Inc.),
 the Gaussian 88(TM) system (copyright 1988, Gaussian, Inc.),
 the Gaussian 86(TM) system (copyright 1986, Carnegie Mellon
 University), and the Gaussian 82(TM) system (copyright 1983,
 Carnegie Mellon University). Gaussian is a federally registered
 trademark of Gaussian, Inc.
  
 This software contains proprietary and confidential information,
 including trade secrets, belonging to Gaussian, Inc.
  
 This software is provided under written license and may be
 used, copied, transmitted, or stored only in accord with that
 written license.
  
 The following legend is applicable only to US Government
 contracts under FAR:
  
                    RESTRICTED RIGHTS LEGEND
  
 Use, reproduction and disclosure by the US Government is
 subject to restrictions as set forth in subparagraphs (a)
 and (c) of the Commercial Computer Software - Restricted
 Rights clause in FAR 52.227-19.
  
 Gaussian, Inc.
 340 Quinnipiac St., Bldg. 40, Wallingford CT 06492
  
  
 ---------------------------------------------------------------
 Warning -- This program may not be used in any manner that
 competes with the business of Gaussian, Inc. or will provide
 assistance to any competitor of Gaussian, Inc.  The licensee
 of this program is prohibited from giving any competitor of
 Gaussian, Inc. access to this program.  By using this program,
 the user acknowledges that Gaussian, Inc. is engaged in the
 business of creating and licensing software in the field of
 computational chemistry and represents and warrants to the
 licensee that it is not a competitor of Gaussian, Inc. and that
 it will not use this program in any manner prohibited above.
 ---------------------------------------------------------------
  

 Cite this work as:
 Gaussian 09, Revision C.01,
 M. J. Frisch, G. W. Trucks, H. B. Schlegel, G. E. Scuseria, 
 M. A. Robb, J. R. Cheeseman, G. Scalmani, V. Barone, B. Mennucci, 
 G. A. Petersson, H. Nakatsuji, M. Caricato, X. Li, H. P. Hratchian, 
 A. F. Izmaylov, J. Bloino, G. Zheng, J. L. Sonnenberg, M. Hada, 
 M. Ehara, K. Toyota, R. Fukuda, J. Hasegawa, M. Ishida, T. Nakajima, 
 Y. Honda, O. Kitao, H. Nakai, T. Vreven, J. A. Montgomery, Jr., 
 J. E. Peralta, F. Ogliaro, M. Bearpark, J. J. Heyd, E. Brothers, 
 K. N. Kudin, V. N. Staroverov, T. Keith, R. Kobayashi, J. Normand, 
 K. Raghavachari, A. Rendell, J. C. Burant, S. S. Iyengar, J. Tomasi, 
 M. Cossi, N. Rega, J. M. Millam, M. Klene, J. E. Knox, J. B. Cross, 
 V. Bakken, C. Adamo, J. Jaramillo, R. Gomperts, R. E. Stratmann, 
 O. Yazyev, A. J. Austin, R. Cammi, C. Pomelli, J. W. Ochterski, 
 R. L. Martin, K. Morokuma, V. G. Zakrzewski, G. A. Voth, 
 P. Salvador, J. J. Dannenberg, S. Dapprich, A. D. Daniels, 
 O. Farkas, J. B. Foresman, J. V. Ortiz, J. Cioslowski, 
 and D. J. Fox, Gaussian, Inc., Wallingford CT, 2010.
 
 ******************************************
 Gaussian 09:  EM64L-G09RevC.01 23-Sep-2011
                26-Feb-2015 
 ******************************************
 %Chk=FORMA_PBEPBE_AUG-cc-pVQZ.chk
 %Mem=8Gb
 %nproc=8
 Will use up to    8 processors via shared memory.
 ----------------------------------------------------------------------
 #p opt(VeryTight,CalcAll,Raman) Integral(Grid=UltraFine) PBEPBE/AUG-cc
 -pVQZ
 ----------------------------------------------------------------------
 1/7=1,10=4,14=-1,18=20,19=15,26=3,38=1/1,3;
 2/9=110,12=2,17=6,18=5,40=1/2;
 3/5=16,6=2,7=10,11=2,16=1,25=1,30=1,71=2,74=1009,75=-5/1,2,3;
 4//1;
 5/5=2,38=5/2;
 8/6=4,10=90,11=11/1;
 10/13=10,15=4/2;
 11/6=3,8=1,9=11,15=111,16=1/1,2,10;
 10/6=1/2;
 6/7=2,8=2,9=2,10=2,18=1,28=1/1;
 7/10=1,25=1/1,2,3,16;
 1/7=1,10=4,14=-1,18=20,19=15/3(3);
 2/9=110/2;
 7/8=1,9=1,25=1,44=-1/16;
 99//99;
 2/9=110/2;
 3/5=16,6=2,7=10,11=2,16=1,25=1,30=1,71=2,74=1009,75=-5/1,2,3;
 4/5=5,16=3/1;
 5/5=2,38=5/2;
 8/6=4,10=90,11=11/1;
 10/13=10,15=4/2;
 11/6=3,8=1,9=11,15=111,16=1/1,2,10;
 10/6=1/2;
 7/10=1,25=1/1,2,3,16;
 1/7=1,10=4,14=-1,18=20,19=15/3(-9);
 2/9=110/2;
 6/7=2,8=2,9=2,10=2,18=1,19=2,28=1/1;
 7/8=1,9=1,25=1,44=-1/16;
 99//99;
 Leave Link    1 at Thu Feb 26 00:38:24 2015, MaxMem= 1073741824 cpu:       0.3
 (Enter /apps/gaussian/g09_c01/g09/l101.exe)
 ----------------------------------------------
 Autjob by noodles.sh | Great noodly basis sets
 ----------------------------------------------
 Charge =  1 Multiplicity = 1
 Symbolic Z-Matrix:
 C                     0.        0.42727   0. 
 H                     0.        1.51386   0. 
 N                     1.16818  -0.17499   0. 
 H                     2.0221    0.37151   0. 
 H                     1.27341  -1.18533   0. 
 N                    -1.16818  -0.17499   0. 
 H                    -1.27341  -1.18533   0. 
 H                    -2.0221    0.37151   0. 
 
 NAtoms=      8 NQM=        0 NQMF=       0 NMMI=      8 NMMIF=      0
                NMic=       0 NMicF=      0.
                    Isotopes and Nuclear Properties:
 (Nuclear quadrupole moments (NQMom) in fm**2, nuclear magnetic moments (NMagM)
  in nuclear magnetons)

  Atom         1           2           3           4           5           6           7           8
 IAtWgt=          12           1          14           1           1          14           1           1
 AtmWgt=  12.0000000   1.0078250  14.0030740   1.0078250   1.0078250  14.0030740   1.0078250   1.0078250
 NucSpn=           0           1           2           1           1           2           1           1
 AtZEff=   0.0000000   0.0000000   0.0000000   0.0000000   0.0000000   0.0000000   0.0000000   0.0000000
 NQMom=    0.0000000   0.0000000   2.0440000   0.0000000   0.0000000   2.0440000   0.0000000   0.0000000
 NMagM=    0.0000000   2.7928460   0.4037610   2.7928460   2.7928460   0.4037610   2.7928460   2.7928460
 Leave Link  101 at Thu Feb 26 00:38:24 2015, MaxMem= 1073741824 cpu:       0.9
 (Enter /apps/gaussian/g09_c01/g09/l103.exe)

 GradGradGradGradGradGradGradGradGradGradGradGradGradGradGradGradGradGrad
 Berny optimization.
 Initialization pass.
                           ----------------------------
                           !    Initial Parameters    !
                           ! (Angstroms and Degrees)  !
 --------------------------                            --------------------------
 ! Name  Definition              Value          Derivative Info.                !
 --------------------------------------------------------------------------------
 ! R1    R(1,2)                  1.0866         calculate D2E/DX2 analytically  !
 ! R2    R(1,3)                  1.3143         calculate D2E/DX2 analytically  !
 ! R3    R(1,6)                  1.3143         calculate D2E/DX2 analytically  !
 ! R4    R(3,4)                  1.0138         calculate D2E/DX2 analytically  !
 ! R5    R(3,5)                  1.0158         calculate D2E/DX2 analytically  !
 ! R6    R(6,7)                  1.0158         calculate D2E/DX2 analytically  !
 ! R7    R(6,8)                  1.0138         calculate D2E/DX2 analytically  !
 ! A1    A(2,1,3)              117.2736         calculate D2E/DX2 analytically  !
 ! A2    A(2,1,6)              117.2736         calculate D2E/DX2 analytically  !
 ! A3    A(3,1,6)              125.4529         calculate D2E/DX2 analytically  !
 ! A4    A(1,3,4)              120.1077         calculate D2E/DX2 analytically  !
 ! A5    A(1,3,5)              123.2199         calculate D2E/DX2 analytically  !
 ! A6    A(4,3,5)              116.6724         calculate D2E/DX2 analytically  !
 ! A7    A(1,6,7)              123.2199         calculate D2E/DX2 analytically  !
 ! A8    A(1,6,8)              120.1077         calculate D2E/DX2 analytically  !
 ! A9    A(7,6,8)              116.6724         calculate D2E/DX2 analytically  !
 ! D1    D(2,1,3,4)              0.0            calculate D2E/DX2 analytically  !
 ! D2    D(2,1,3,5)            180.0            calculate D2E/DX2 analytically  !
 ! D3    D(6,1,3,4)            180.0            calculate D2E/DX2 analytically  !
 ! D4    D(6,1,3,5)              0.0            calculate D2E/DX2 analytically  !
 ! D5    D(2,1,6,7)            180.0            calculate D2E/DX2 analytically  !
 ! D6    D(2,1,6,8)              0.0            calculate D2E/DX2 analytically  !
 ! D7    D(3,1,6,7)              0.0            calculate D2E/DX2 analytically  !
 ! D8    D(3,1,6,8)            180.0            calculate D2E/DX2 analytically  !
 --------------------------------------------------------------------------------
 Trust Radius=3.00D-01 FncErr=1.00D-07 GrdErr=1.00D-06
 Number of steps in this run=     34 maximum allowed number of steps=    100.
 GradGradGradGradGradGradGradGradGradGradGradGradGradGradGradGradGradGrad

 Leave Link  103 at Thu Feb 26 00:38:24 2015, MaxMem= 1073741824 cpu:       0.0
 (Enter /apps/gaussian/g09_c01/g09/l202.exe)
                          Input orientation:                          
 ---------------------------------------------------------------------
 Center     Atomic      Atomic             Coordinates (Angstroms)
 Number     Number       Type             X           Y           Z
 ---------------------------------------------------------------------
      1          6           0        0.000000    0.427270    0.000000
      2          1           0        0.000000    1.513864    0.000000
      3          7           0        1.168180   -0.174990    0.000000
      4          1           0        2.022103    0.371511    0.000000
      5          1           0        1.273414   -1.185325    0.000000
      6          7           0       -1.168180   -0.174990    0.000000
      7          1           0       -1.273414   -1.185325    0.000000
      8          1           0       -2.022103    0.371511    0.000000
 ---------------------------------------------------------------------
                    Distance matrix (angstroms):
                    1          2          3          4          5
     1  C    0.000000
     2  H    1.086594   0.000000
     3  N    1.314291   2.053502   0.000000
     4  H    2.022872   2.322471   1.013828   0.000000
     5  H    2.054762   2.984494   1.015801   1.727505   0.000000
     6  N    1.314291   2.053502   2.336360   3.236753   2.642377
     7  H    2.054762   2.984494   2.642377   3.644746   2.546828
     8  H    2.022872   2.322471   3.236753   4.044206   3.644746
                    6          7          8
     6  N    0.000000
     7  H    1.015801   0.000000
     8  H    1.013828   1.727505   0.000000
 Stoichiometry    CH5N2(1+)
 Framework group  C2V[C2(CH),SGV(H4N2)]
 Deg. of freedom     7
 Full point group                 C2V     NOp   4
 Largest Abelian subgroup         C2V     NOp   4
 Largest concise Abelian subgroup C2      NOp   2
                         Standard orientation:                         
 ---------------------------------------------------------------------
 Center     Atomic      Atomic             Coordinates (Angstroms)
 Number     Number       Type             X           Y           Z
 ---------------------------------------------------------------------
      1          6           0        0.000000    0.000000    0.427270
      2          1           0        0.000000    0.000000    1.513864
      3          7           0        0.000000    1.168180   -0.174990
      4          1           0        0.000000    2.022103    0.371511
      5          1           0        0.000000    1.273414   -1.185325
      6          7           0        0.000000   -1.168180   -0.174990
      7          1           0        0.000000   -1.273414   -1.185325
      8          1           0        0.000000   -2.022103    0.371511
 ---------------------------------------------------------------------
 Rotational constants (GHZ):     59.6815563     10.1627081      8.6839806
 Leave Link  202 at Thu Feb 26 00:38:24 2015, MaxMem= 1073741824 cpu:       0.0
 (Enter /apps/gaussian/g09_c01/g09/l301.exe)
 Standard basis: Aug-CC-pVQZ (5D, 7F)
 Ernie: Thresh=  0.10000D-02 Tol=  0.10000D-05 Strict=F.
 Ernie:  9 primitive shells out of 194 were deleted.
 There are   160 symmetry adapted basis functions of A1  symmetry.
 There are    78 symmetry adapted basis functions of A2  symmetry.
 There are    92 symmetry adapted basis functions of B1  symmetry.
 There are   140 symmetry adapted basis functions of B2  symmetry.
 Integral buffers will be    131072 words long.
 Raffenetti 2 integral format.
 Two-electron integral symmetry is turned on.
   470 basis functions,   657 primitive gaussians,   590 cartesian basis functions
    12 alpha electrons       12 beta electrons
       nuclear repulsion energy        79.4241064683 Hartrees.
 IExCor= 1009 DFT=T Ex=PBE Corr=PBE ExCW=0 ScaHFX=  0.000000
 ScaDFX=  1.000000  1.000000  1.000000  1.000000 ScalE2=  1.000000  1.000000
 IRadAn=      5 IRanWt=     -1 IRanGd=            0 ICorTp=0
 NAtoms=    8 NActive=    8 NUniq=    5 SFac= 2.56D+00 NAtFMM=   60 NAOKFM=F Big=F
 Leave Link  301 at Thu Feb 26 00:38:24 2015, MaxMem= 1073741824 cpu:       0.3
 (Enter /apps/gaussian/g09_c01/g09/l302.exe)
 NPDir=0 NMtPBC=     1 NCelOv=     1 NCel=       1 NClECP=     1 NCelD=      1
         NCelK=      1 NCelE2=     1 NClLst=     1 CellRange=     0.0.
 One-electron integrals computed using PRISM.
 One-electron integral symmetry used in STVInt
 NBasis=   470 RedAO= T  NBF=   160    78    92   140
 NBsUse=   470 1.00D-06 NBFU=   160    78    92   140
 Precomputing XC quadrature grid using
 IXCGrd= 2 IRadAn=           5 IRanWt=          -1 IRanGd=           0 AccXCQ= 0.00D+00.
 NRdTot=     687 NPtTot=      185464 NUsed=      190390 NTot=      190422
 NSgBfM=   590   590   590   590   590 NAtAll=     8     8.
 Leave Link  302 at Thu Feb 26 00:38:24 2015, MaxMem= 1073741824 cpu:       3.3
 (Enter /apps/gaussian/g09_c01/g09/l303.exe)
 DipDrv:  MaxL=1.
 Leave Link  303 at Thu Feb 26 00:38:25 2015, MaxMem= 1073741824 cpu:       0.6
 (Enter /apps/gaussian/g09_c01/g09/l401.exe)
 Harris functional with IExCor= 1009 diagonalized for initial guess.
 ExpMin= 2.36D-02 ExpMax= 4.58D+04 ExpMxC= 4.42D+02 IAcc=3 IRadAn=         5 AccDes= 0.00D+00
 HarFok:  IExCor= 1009 AccDes= 0.00D+00 IRadAn=         5 IDoV= 1
 ScaDFX=  1.000000  1.000000  1.000000  1.000000
 FoFCou: FMM=F IPFlag=           0 FMFlag=      100000 FMFlg1=           0
         NFxFlg=           0 DoJE=T BraDBF=F KetDBF=T FulRan=T
         Omega=  0.000000  0.000000  1.000000  0.000000  0.000000 ICntrl=     500 IOpCl=  0
         NMat0=    1 NMatS0=    1 NMatT0=    0 NMatD0=    1 NMtDS0=    0 NMtDT0=    0
         I1Cent=           4 NGrid=           0.
 Petite list used in FoFCou.
 Harris En= -150.356986675674    
 Initial guess orbital symmetries:
       Occupied  (B2) (A1) (A1) (A1) (B2) (A1) (A1) (B2) (B2) (A1)
                 (B1) (A2)
       Virtual   (B1) (A1) (B2) (A1) (A1) (B2) (B1) (A1) (B2) (A1)
                 (A1) (A2) (B1) (B2) (A1) (B2) (A1) (B2) (B1) (A1)
                 (A1) (A2) (B2) (B2) (B1) (A1) (A1) (A1) (B1) (A1)
                 (A2) (B2) (B2) (A1) (B1) (A2) (A1) (B2) (B2) (A1)
                 (A1) (B2) (B1) (B2) (A1) (A2) (B1) (B2) (A1) (B1)
                 (B2) (A2) (A1) (B2) (A1) (A1) (B2) (B1) (B2) (A1)
                 (A1) (A2) (A1) (B2) (B1) (A1) (A2) (A1) (B1) (B2)
                 (B1) (A2) (B2) (B1) (A1) (B2) (B2) (A1) (A1) (A1)
                 (A2) (B1) (A2) (B1) (B2) (A1) (B2) (A1) (A2) (A2)
                 (B1) (B2) (A1) (B2) (B2) (A1) (A2) (B2) (A1) (A1)
                 (B1) (B1) (A1) (B2) (B2) (A1) (A2) (A1) (B2) (B1)
                 (B2) (B1) (A1) (A2) (A1) (A1) (B1) (B2) (A2) (A1)
                 (B2) (A1) (B1) (B2) (A1) (B1) (B2) (A2) (A1) (B2)
                 (A2) (A1) (B2) (B1) (B1) (B2) (A1) (A2) (A1) (B2)
                 (B1) (A1) (A2) (B2) (B1) (B2) (A1) (B1) (B2) (A1)
                 (A2) (A2) (B2) (A1) (A1) (B1) (B2) (A1) (B2) (A2)
                 (A1) (A1) (B1) (B2) (A2) (B1) (A1) (A1) (B2) (B1)
                 (B1) (A1) (A2) (B2) (A2) (A2) (B2) (A1) (B1) (B2)
                 (A1) (B1) (B1) (B2) (A1) (A2) (A1) (A1) (B2) (B2)
                 (A1) (A2) (B1) (B2) (A2) (B2) (A1) (B2) (B1) (A2)
                 (A1) (B1) (B2) (A1) (A1) (B1) (A2) (B2) (B2) (A1)
                 (B1) (A2) (B2) (B1) (A1) (A1) (B2) (A1) (A2) (B2)
                 (B1) (B2) (A2) (B1) (B2) (A1) (A1) (A1) (A2) (B2)
                 (B1) (A1) (A2) (A1) (B2) (B1) (B2) (A1) (A2) (B2)
                 (A1) (A1) (B2) (B1) (B2) (A1) (A2) (B2) (B1) (B2)
                 (A1) (A1) (A2) (B1) (B2) (A2) (A1) (B1) (A1) (B2)
                 (A1) (B1) (A2) (A1) (B2) (A2) (A1) (B1) (B2) (A1)
                 (B2) (A2) (B1) (A1) (B2) (A1) (A2) (B2) (B1) (A1)
                 (B2) (A1) (B2) (A2) (B2) (B1) (A1) (B1) (A1) (B2)
                 (A2) (B2) (B1) (A2) (A1) (B2) (A1) (A1) (B2) (A1)
                 (B2) (A1) (B2) (A2) (B1) (B1) (A1) (B1) (B2) (B1)
                 (A1) (A2) (B2) (A1) (B1) (A2) (B1) (A1) (A2) (B2)
                 (A1) (B2) (B1) (A1) (B2) (A2) (B2) (A1) (A1) (B1)
                 (A2) (B1) (B2) (B1) (B2) (A1) (B2) (A2) (B1) (A1)
                 (A1) (A2) (B2) (A2) (A1) (B2) (A2) (A1) (B1) (B1)
                 (B2) (A1) (A2) (B1) (A1) (A2) (B2) (A1) (B1) (B1)
                 (A2) (B2) (A1) (B2) (A1) (A1) (B1) (B2) (A1) (B2)
                 (A2) (B2) (B1) (B2) (A2) (A1) (B1) (A2) (A1) (B2)
                 (B1) (B2) (A1) (A1) (A2) (B1) (B2) (A2) (B2) (A1)
                 (A1) (B2) (B2) (B1) (A1) (A2) (A1) (A1) (B2) (A2)
                 (B1) (B2) (A1) (B1) (B1) (A1) (B2) (A1) (A2) (A2)
                 (B1) (B2) (B1) (B2) (A2) (A2) (A1) (B1) (A1) (B1)
                 (B2) (A1) (A2) (A1) (B2) (B2) (A2) (A1) (B2) (B1)
                 (B2) (A1) (A1) (B2) (B2) (A1) (A1) (B1) (A2) (B1)
                 (A2) (B2) (A1) (B2) (A1) (B2) (A1) (B2) (A1) (A1)
                 (B2) (A1) (B2) (B2) (A1) (A1) (A1) (B2)
 The electronic state of the initial guess is 1-A1.
 Leave Link  401 at Thu Feb 26 00:38:26 2015, MaxMem= 1073741824 cpu:      10.4
 (Enter /apps/gaussian/g09_c01/g09/l502.exe)
 Closed shell SCF:
 Requested convergence on RMS density matrix=1.00D-08 within 128 cycles.
 Requested convergence on MAX density matrix=1.00D-06.
 Requested convergence on             energy=1.00D-06.
 No special actions if energy rises.
 Using DIIS extrapolation, IDIIS=  1040.
 Integral symmetry usage will be decided dynamically.
       190305 words used for storage of precomputed grid.
 IEnd=     1262487 IEndB=     1262487 NGot=  1073741824 MDV=  1072844668
 LenX=  1072844668 LenY=  1072495978
 Fock matrices will be formed incrementally for  20 cycles.

 Cycle   1  Pass 1  IDiag  1:
 FoFCou: FMM=F IPFlag=           0 FMFlag=      100000 FMFlg1=           0
         NFxFlg=           0 DoJE=T BraDBF=F KetDBF=F FulRan=T
         Omega=  0.000000  0.000000  1.000000  0.000000  0.000000 ICntrl=     500 IOpCl=  0
         NMat0=    1 NMatS0=    1 NMatT0=    0 NMatD0=    1 NMtDS0=    0 NMtDT0=    0
         I1Cent=           0 NGrid=           0.
 Petite list used in FoFCou.
 E= -150.232007978826    
 DIIS: error= 1.53D-02 at cycle   1 NSaved=   1.
 NSaved= 1 IEnMin= 1 EnMin= -150.232007978826     IErMin= 1 ErrMin= 1.53D-02
 ErrMax= 1.53D-02 EMaxC= 1.00D-01 BMatC= 6.57D-02 BMatP= 6.57D-02
 IDIUse=3 WtCom= 8.47D-01 WtEn= 1.53D-01
 Coeff-Com:  0.100D+01
 Coeff-En:   0.100D+01
 Coeff:      0.100D+01
 Gap=     0.160 Goal=   None    Shift=    0.000
 GapD=    0.160 DampG=1.000 DampE=0.500 DampFc=0.5000 IDamp=-1.
 Damping current iteration by 5.00D-01
 RMSDP=5.86D-04 MaxDP=4.80D-02              OVMax= 1.58D-01

 Cycle   2  Pass 1  IDiag  1:
 RMSU=  2.07D-04    CP:  9.99D-01
 E= -150.241123503579     Delta-E=       -0.009115524754 Rises=F Damp=T
 DIIS: error= 5.73D-03 at cycle   2 NSaved=   2.
 NSaved= 2 IEnMin= 2 EnMin= -150.241123503579     IErMin= 2 ErrMin= 5.73D-03
 ErrMax= 5.73D-03 EMaxC= 1.00D-01 BMatC= 8.69D-03 BMatP= 6.57D-02
 IDIUse=3 WtCom= 9.43D-01 WtEn= 5.73D-02
 Coeff-Com:  0.203D+00 0.797D+00
 Coeff-En:   0.395D+00 0.605D+00
 Coeff:      0.214D+00 0.786D+00
 Gap=     0.211 Goal=   None    Shift=    0.000
 RMSDP=2.86D-04 MaxDP=3.14D-02 DE=-9.12D-03 OVMax= 1.30D-01

 Cycle   3  Pass 1  IDiag  1:
 RMSU=  1.88D-04    CP:  1.02D+00  1.27D+00
 E= -150.270871881532     Delta-E=       -0.029748377953 Rises=F Damp=F
 DIIS: error= 5.57D-03 at cycle   3 NSaved=   3.
 NSaved= 3 IEnMin= 3 EnMin= -150.270871881532     IErMin= 3 ErrMin= 5.57D-03
 ErrMax= 5.57D-03 EMaxC= 1.00D-01 BMatC= 2.57D-03 BMatP= 8.69D-03
 IDIUse=3 WtCom= 9.44D-01 WtEn= 5.57D-02
 Coeff-Com:  0.362D-02 0.335D+00 0.661D+00
 Coeff-En:   0.000D+00 0.000D+00 0.100D+01
 Coeff:      0.342D-02 0.317D+00 0.680D+00
 Gap=     0.202 Goal=   None    Shift=    0.000
 RMSDP=7.84D-05 MaxDP=6.97D-03 DE=-2.97D-02 OVMax= 3.69D-02

 Cycle   4  Pass 1  IDiag  1:
 RMSU=  5.02D-05    CP:  1.02D+00  1.31D+00  8.87D-01
 E= -150.272394859314     Delta-E=       -0.001522977782 Rises=F Damp=F
 DIIS: error= 3.81D-03 at cycle   4 NSaved=   4.
 NSaved= 4 IEnMin= 4 EnMin= -150.272394859314     IErMin= 4 ErrMin= 3.81D-03
 ErrMax= 3.81D-03 EMaxC= 1.00D-01 BMatC= 8.73D-04 BMatP= 2.57D-03
 IDIUse=3 WtCom= 9.62D-01 WtEn= 3.81D-02
 Coeff-Com: -0.206D-01 0.876D-01 0.423D+00 0.510D+00
 Coeff-En:   0.000D+00 0.000D+00 0.287D+00 0.713D+00
 Coeff:     -0.198D-01 0.843D-01 0.417D+00 0.518D+00
 Gap=     0.206 Goal=   None    Shift=    0.000
 RMSDP=3.46D-05 MaxDP=2.88D-03 DE=-1.52D-03 OVMax= 1.30D-02

 Cycle   5  Pass 1  IDiag  1:
 RMSU=  7.59D-06    CP:  1.02D+00  1.31D+00  9.13D-01  5.54D-01
 E= -150.273230839718     Delta-E=       -0.000835980404 Rises=F Damp=F
 DIIS: error= 2.73D-04 at cycle   5 NSaved=   5.
 NSaved= 5 IEnMin= 5 EnMin= -150.273230839718     IErMin= 5 ErrMin= 2.73D-04
 ErrMax= 2.73D-04 EMaxC= 1.00D-01 BMatC= 1.17D-05 BMatP= 8.73D-04
 IDIUse=3 WtCom= 9.97D-01 WtEn= 2.73D-03
 Coeff-Com: -0.739D-02 0.259D-01 0.165D+00 0.229D+00 0.588D+00
 Coeff-En:   0.000D+00 0.000D+00 0.000D+00 0.000D+00 0.100D+01
 Coeff:     -0.737D-02 0.258D-01 0.165D+00 0.228D+00 0.589D+00
 Gap=     0.206 Goal=   None    Shift=    0.000
 RMSDP=4.09D-06 MaxDP=3.06D-04 DE=-8.36D-04 OVMax= 9.35D-04

 Cycle   6  Pass 1  IDiag  1:
 RMSU=  1.57D-06    CP:  1.02D+00  1.32D+00  9.18D-01  5.75D-01  7.48D-01
 E= -150.273241515679     Delta-E=       -0.000010675961 Rises=F Damp=F
 DIIS: error= 3.04D-05 at cycle   6 NSaved=   6.
 NSaved= 6 IEnMin= 6 EnMin= -150.273241515679     IErMin= 6 ErrMin= 3.04D-05
 ErrMax= 3.04D-05 EMaxC= 1.00D-01 BMatC= 1.35D-07 BMatP= 1.17D-05
 IDIUse=1 WtCom= 1.00D+00 WtEn= 0.00D+00
 Coeff-Com: -0.880D-03 0.339D-02 0.303D-01 0.444D-01 0.153D+00 0.769D+00
 Coeff:     -0.880D-03 0.339D-02 0.303D-01 0.444D-01 0.153D+00 0.769D+00
 Gap=     0.206 Goal=   None    Shift=    0.000
 RMSDP=5.33D-07 MaxDP=7.76D-05 DE=-1.07D-05 OVMax= 9.04D-05

 Cycle   7  Pass 1  IDiag  1:
 RMSU=  2.44D-07    CP:  1.02D+00  1.32D+00  9.19D-01  5.76D-01  7.60D-01
                    CP:  9.53D-01
 E= -150.273241631019     Delta-E=       -0.000000115340 Rises=F Damp=F
 DIIS: error= 2.92D-06 at cycle   7 NSaved=   7.
 NSaved= 7 IEnMin= 7 EnMin= -150.273241631019     IErMin= 7 ErrMin= 2.92D-06
 ErrMax= 2.92D-06 EMaxC= 1.00D-01 BMatC= 2.31D-09 BMatP= 1.35D-07
 IDIUse=1 WtCom= 1.00D+00 WtEn= 0.00D+00
 Coeff-Com:  0.115D-03-0.240D-03 0.644D-03 0.135D-02 0.102D-01 0.145D+00
 Coeff-Com:  0.843D+00
 Coeff:      0.115D-03-0.240D-03 0.644D-03 0.135D-02 0.102D-01 0.145D+00
 Coeff:      0.843D+00
 Gap=     0.206 Goal=   None    Shift=    0.000
 RMSDP=8.05D-08 MaxDP=4.59D-06 DE=-1.15D-07 OVMax= 1.30D-05

 Cycle   8  Pass 1  IDiag  1:
 RMSU=  3.44D-08    CP:  1.02D+00  1.32D+00  9.19D-01  5.76D-01  7.60D-01
                    CP:  9.57D-01  8.97D-01
 E= -150.273241632906     Delta-E=       -0.000000001887 Rises=F Damp=F
 DIIS: error= 5.67D-07 at cycle   8 NSaved=   8.
 NSaved= 8 IEnMin= 8 EnMin= -150.273241632906     IErMin= 8 ErrMin= 5.67D-07
 ErrMax= 5.67D-07 EMaxC= 1.00D-01 BMatC= 3.43D-11 BMatP= 2.31D-09
 IDIUse=1 WtCom= 1.00D+00 WtEn= 0.00D+00
 Coeff-Com:  0.171D-04-0.602D-04-0.227D-03-0.367D-03 0.476D-05 0.111D-01
 Coeff-Com:  0.124D+00 0.865D+00
 Coeff:      0.171D-04-0.602D-04-0.227D-03-0.367D-03 0.476D-05 0.111D-01
 Coeff:      0.124D+00 0.865D+00
 Gap=     0.206 Goal=   None    Shift=    0.000
 RMSDP=9.89D-09 MaxDP=8.71D-07 DE=-1.89D-09 OVMax= 1.72D-06

 SCF Done:  E(RPBE-PBE) =  -150.273241633     A.U. after    8 cycles
             Convg  =    0.9889D-08             -V/T =  2.0045
 KE= 1.496022330839D+02 PE=-5.029618489446D+02 EE= 1.236622677595D+02
 Leave Link  502 at Thu Feb 26 00:39:41 2015, MaxMem= 1073741824 cpu:     603.2
 (Enter /apps/gaussian/g09_c01/g09/l801.exe)
 Range of M.O.s used for correlation:     1   470
 NBasis=   470 NAE=    12 NBE=    12 NFC=     0 NFV=     0
 NROrb=    470 NOA=    12 NOB=    12 NVA=   458 NVB=   458

 **** Warning!!: The largest alpha MO coefficient is  0.99261994D+02

 Leave Link  801 at Thu Feb 26 00:39:41 2015, MaxMem= 1073741824 cpu:       0.2
 (Enter /apps/gaussian/g09_c01/g09/l1002.exe)
 Minotr:  Closed shell wavefunction.
          Direct CPHF calculation.
          Differentiating once with respect to electric field.
                with respect to dipole field.
          Electric field/nuclear overlap derivatives assumed to be zero.
          Using symmetry in CPHF.
          Requested convergence is 1.0D-08 RMS, and 1.0D-07 maximum.
          Secondary convergence is 1.0D-12 RMS, and 1.0D-12 maximum.
          NewPWx=F KeepS1=T KeepF1=T KeepIn=T MapXYZ=F SortEE=F KeepMc=T.
          MDV=    1073741756 using IRadAn=       1.
 Generate precomputed XC quadrature information.
          Solving linear equations simultaneously, MaxMat=       0.
          There are     3 degrees of freedom in the 1st order CPHF.  IDoFFX=0.
      3 vectors produced by pass  0 Test12= 1.83D-13 3.33D-08 XBig12= 6.12D+01 6.94D+00.
 AX will form     3 AO Fock derivatives at one time.
 FoFCou: FMM=F IPFlag=           0 FMFlag=      100000 FMFlg1=           0
         NFxFlg=           0 DoJE=T BraDBF=F KetDBF=F FulRan=T
         Omega=  0.000000  0.000000  1.000000  0.000000  0.000000 ICntrl=     500 IOpCl=  0
         NMat0=    3 NMatS0=    3 NMatT0=    0 NMatD0=    3 NMtDS0=    0 NMtDT0=    0
         I1Cent=           0 NGrid=           0.
 Symmetry not used in FoFCou.
      3 vectors produced by pass  1 Test12= 1.83D-13 3.33D-08 XBig12= 3.64D+01 2.01D+00.
      3 vectors produced by pass  2 Test12= 1.83D-13 3.33D-08 XBig12= 3.21D+00 4.52D-01.
      3 vectors produced by pass  3 Test12= 1.83D-13 3.33D-08 XBig12= 9.28D-02 6.76D-02.
      3 vectors produced by pass  4 Test12= 1.83D-13 3.33D-08 XBig12= 1.17D-02 2.88D-02.
      3 vectors produced by pass  5 Test12= 1.83D-13 3.33D-08 XBig12= 2.04D-03 9.98D-03.
      3 vectors produced by pass  6 Test12= 1.83D-13 3.33D-08 XBig12= 5.03D-05 2.05D-03.
      3 vectors produced by pass  7 Test12= 1.83D-13 3.33D-08 XBig12= 9.88D-07 1.44D-04.
      2 vectors produced by pass  8 Test12= 1.83D-13 3.33D-08 XBig12= 3.58D-09 1.16D-05.
      2 vectors produced by pass  9 Test12= 1.83D-13 3.33D-08 XBig12= 1.28D-10 2.83D-06.
      1 vectors produced by pass 10 Test12= 1.83D-13 3.33D-08 XBig12= 1.39D-12 2.13D-07.
 Inverted reduced A of dimension    29 with in-core refinement.
 End of Minotr Frequency-dependent properties file   721 does not exist.
 End of Minotr Frequency-dependent properties file   722 does not exist.
 Leave Link 1002 at Thu Feb 26 00:45:42 2015, MaxMem= 1073741824 cpu:    2879.1
 (Enter /apps/gaussian/g09_c01/g09/l1101.exe)
 Using compressed storage, NAtomX=     8.
 Will process   9 centers per pass.
 Leave Link 1101 at Thu Feb 26 00:45:42 2015, MaxMem= 1073741824 cpu:       5.9
 (Enter /apps/gaussian/g09_c01/g09/l1102.exe)
 Symmetrizing basis deriv contribution to polar:
 IMax=3 JMax=2 DiffMx= 0.00D+00
 Leave Link 1102 at Thu Feb 26 00:45:42 2015, MaxMem= 1073741824 cpu:       0.6
 (Enter /apps/gaussian/g09_c01/g09/l1110.exe)
 Forming Gx(P) for the SCF density, NAtomX=     8.
 Integral derivatives from FoFDir/FoFCou, PRISM(SPDF).
 Do as many integral derivatives as possible in FoFDir.
 G2DrvN: MDV=    1073741656.
 G2DrvN: will do     9 centers at a time, making    1 passes doing MaxLOS=4.
 Calling FoFCou, ICntrl=  3507 FMM=F I1Cent=   0 AccDes= 0.00D+00.
 FoFCou: FMM=F IPFlag=           0 FMFlag=      100000 FMFlg1=           0
         NFxFlg=           0 DoJE=F BraDBF=F KetDBF=F FulRan=T
         Omega=  0.000000  0.000000  1.000000  0.000000  0.000000 ICntrl=    3507 IOpCl=  0
         NMat0=    1 NMatS0=    1 NMatT0=    0 NMatD0=    4 NMtDS0=    3 NMtDT0=    0
         I1Cent=           0 NGrid=           0.
 Petite list used in FoFCou.
 FoFDir/FoFCou used for L=0 through L=4.
 End of G2Drv Frequency-dependent properties file   721 does not exist.
 End of G2Drv Frequency-dependent properties file   722 does not exist.
 Leave Link 1110 at Thu Feb 26 00:51:25 2015, MaxMem= 1073741824 cpu:    2738.2
 (Enter /apps/gaussian/g09_c01/g09/l1002.exe)
 Minotr:  Closed shell wavefunction.
          IDoAtm=11111111
          Direct CPHF calculation.
          Differentiating once with respect to electric field.
                with respect to dipole field.
          Differentiating once with respect to nuclear coordinates.
          Using symmetry in CPHF.
          Requested convergence is 1.0D-08 RMS, and 1.0D-07 maximum.
          Secondary convergence is 1.0D-12 RMS, and 1.0D-12 maximum.
          NewPWx=T KeepS1=F KeepF1=F KeepIn=T MapXYZ=F SortEE=F KeepMc=T.
          MDV=    1073741740 using IRadAn=       1.
 Generate precomputed XC quadrature information.
          Solving linear equations simultaneously, MaxMat=       0.
 FoFCou: FMM=F IPFlag=           0 FMFlag=      100000 FMFlg1=           0
         NFxFlg=           0 DoJE=F BraDBF=F KetDBF=F FulRan=T
         Omega=  0.000000  0.000000  1.000000  0.000000  0.000000 ICntrl=     500 IOpCl=  0
         NMat0=   18 NMatS0=   18 NMatT0=    0 NMatD0=   18 NMtDS0=    0 NMtDT0=    0
         I1Cent=           0 NGrid=           0.
 Integrals replicated using symmetry in FoFCou.
          There are    18 degrees of freedom in the 1st order CPHF.  IDoFFX=4.
 Will reuse    3 saved solutions.
     15 vectors produced by pass  0 Test12= 3.05D-14 5.56D-09 XBig12= 1.65D-01 1.45D-01.
 AX will form    15 AO Fock derivatives at one time.
     15 vectors produced by pass  1 Test12= 3.05D-14 5.56D-09 XBig12= 9.62D-02 1.84D-01.
     15 vectors produced by pass  2 Test12= 3.05D-14 5.56D-09 XBig12= 1.49D-03 4.88D-03.
     15 vectors produced by pass  3 Test12= 3.05D-14 5.56D-09 XBig12= 1.49D-05 6.31D-04.
     15 vectors produced by pass  4 Test12= 3.05D-14 5.56D-09 XBig12= 6.38D-08 3.17D-05.
     10 vectors produced by pass  5 Test12= 3.05D-14 5.56D-09 XBig12= 3.47D-11 9.17D-07.
      2 vectors produced by pass  6 Test12= 3.05D-14 5.56D-09 XBig12= 5.01D-14 2.53D-08.
 Inverted reduced A of dimension    87 with in-core refinement.
 FullF1:  Do perturbations    1 to    18.
 Isotropic polarizability for W=    0.000000       27.50 Bohr**3.
 FullF1:  Do perturbations    1 to     6.
 End of Minotr Frequency-dependent properties file   721 does not exist.
 End of Minotr Frequency-dependent properties file   722 does not exist.
 Leave Link 1002 at Thu Feb 26 01:10:11 2015, MaxMem= 1073741824 cpu:    9002.6
 (Enter /apps/gaussian/g09_c01/g09/l601.exe)
 Copying SCF densities to generalized density rwf, IOpCl= 0 IROHF=0.

 **********************************************************************

            Population analysis using the SCF density.

 **********************************************************************

 Orbital symmetries:
       Occupied  (B2) (A1) (A1) (A1) (B2) (A1) (A1) (B2) (B2) (A1)
                 (B1) (A2)
       Virtual   (B1) (A1) (A1) (B2) (B2) (A1) (B1) (A1) (B2) (A1)
                 (B1) (A2) (A1) (B2) (A1) (A1) (B2) (B2) (B1) (A1)
                 (A2) (A1) (B2) (B1) (B2) (A1) (B1) (A1) (A1) (A2)
                 (A1) (B2) (B2) (A1) (B1) (A2) (B2) (A1) (B2) (A1)
                 (A1) (B2) (B1) (B2) (A1) (B1) (A2) (B1) (B2) (A1)
                 (B2) (A2) (A1) (B2) (A1) (A1) (B2) (B1) (A1) (B2)
                 (A1) (A2) (A1) (B1) (A2) (B2) (A1) (B1) (A1) (B2)
                 (B1) (A2) (B1) (B2) (A1) (B2) (A1) (B2) (A1) (A2)
                 (A1) (B1) (A2) (B1) (B2) (A1) (B2) (A2) (A1) (A2)
                 (B1) (B2) (A1) (B2) (B2) (A2) (A1) (B2) (A1) (A1)
                 (B1) (B1) (A1) (B2) (B2) (A1) (A2) (A1) (B2) (B1)
                 (B2) (B1) (A1) (A2) (A1) (B1) (A1) (B2) (A2) (A1)
                 (B2) (B1) (A1) (B2) (A1) (B1) (B2) (A2) (A1) (B2)
                 (A2) (A1) (B2) (B1) (B1) (B2) (A1) (A2) (B2) (A1)
                 (B1) (A2) (A1) (B1) (B2) (B2) (A1) (B1) (B2) (A2)
                 (A1) (A2) (B2) (A1) (A1) (B1) (B2) (A1) (A2) (B2)
                 (A1) (A1) (B1) (A2) (B2) (B1) (A1) (A1) (B1) (B2)
                 (B1) (A1) (A2) (B2) (A2) (A2) (B2) (B1) (A1) (B2)
                 (A1) (B1) (B1) (A1) (B2) (A2) (A1) (A1) (B2) (B2)
                 (A1) (A2) (B1) (B2) (A2) (B2) (A1) (B2) (B1) (A2)
                 (A1) (B1) (B2) (A1) (A1) (A2) (B1) (B2) (B2) (A1)
                 (B1) (A2) (B2) (B1) (A1) (A1) (B2) (A1) (A2) (B2)
                 (B1) (B2) (A2) (B1) (B2) (A1) (A1) (A1) (A2) (B2)
                 (B1) (A1) (A2) (A1) (B2) (B1) (B2) (A1) (A2) (B2)
                 (A1) (A1) (B2) (B1) (B2) (A1) (A2) (B2) (B1) (B2)
                 (A1) (A2) (A1) (B1) (B2) (A2) (A1) (B1) (A1) (B2)
                 (A1) (B1) (A2) (A1) (B2) (A2) (A1) (B2) (B1) (A1)
                 (B2) (A2) (B1) (A1) (B2) (A1) (A2) (B2) (B1) (A1)
                 (B2) (A1) (B2) (A2) (B2) (B1) (A1) (B1) (A1) (A2)
                 (B2) (B2) (B1) (A2) (A1) (B2) (A1) (A1) (B2) (A1)
                 (B2) (A1) (B2) (A2) (B1) (B1) (A1) (B1) (B2) (B1)
                 (A1) (A2) (B2) (A1) (B1) (A2) (B1) (A1) (A2) (B2)
                 (A1) (B2) (B1) (A1) (B2) (A2) (B2) (A1) (A1) (B1)
                 (A2) (B1) (B2) (B1) (B2) (A1) (B2) (A2) (B1) (A1)
                 (A1) (A2) (B2) (A2) (A1) (B2) (A2) (A1) (B1) (B1)
                 (B2) (A1) (A2) (B1) (A1) (A2) (B2) (A1) (B1) (B1)
                 (A2) (B2) (A1) (B2) (A1) (A1) (B2) (A1) (B1) (B2)
                 (A2) (B2) (B1) (B2) (A2) (A1) (B1) (A2) (A1) (B2)
                 (B1) (B2) (A1) (A1) (A2) (B1) (B2) (A2) (B2) (A1)
                 (A1) (B2) (B2) (B1) (A1) (A2) (A1) (A1) (B2) (A2)
                 (B1) (B2) (A1) (B1) (B1) (A1) (B2) (A1) (A2) (A2)
                 (B1) (B2) (B1) (B2) (A2) (A2) (A1) (B1) (A1) (B2)
                 (B1) (A1) (A2) (A1) (B2) (B2) (A2) (A1) (B2) (B1)
                 (B2) (A1) (A1) (B2) (B2) (A1) (A1) (B1) (A2) (B1)
                 (A2) (B2) (A1) (B2) (A1) (B2) (A1) (A1) (B2) (A1)
                 (B2) (A1) (B2) (B2) (A1) (A1) (A1) (B2)
 The electronic state is 1-A1.
 Alpha  occ. eigenvalues --  -14.25476 -14.25475 -10.21768  -1.13609  -1.05643
 Alpha  occ. eigenvalues --   -0.83496  -0.76277  -0.74059  -0.67700  -0.61717
 Alpha  occ. eigenvalues --   -0.59697  -0.47901
 Alpha virt. eigenvalues --   -0.27303  -0.19973  -0.17404  -0.17035  -0.11766
 Alpha virt. eigenvalues --   -0.11743  -0.11537  -0.10245  -0.07815  -0.07152
 Alpha virt. eigenvalues --   -0.06804  -0.06678  -0.05405  -0.03975  -0.03797
 Alpha virt. eigenvalues --   -0.02363  -0.02130  -0.00951  -0.00439  -0.00082
 Alpha virt. eigenvalues --    0.01206   0.01826   0.02771   0.03604   0.04220
 Alpha virt. eigenvalues --    0.04577   0.07022   0.07246   0.07766   0.08983
 Alpha virt. eigenvalues --    0.09269   0.09483   0.09983   0.10014   0.10191
 Alpha virt. eigenvalues --    0.12237   0.13324   0.13362   0.14616   0.15166
 Alpha virt. eigenvalues --    0.15609   0.16490   0.17272   0.18985   0.19872
 Alpha virt. eigenvalues --    0.20845   0.21256   0.23410   0.23572   0.24255
 Alpha virt. eigenvalues --    0.26093   0.26168   0.28395   0.29756   0.29945
 Alpha virt. eigenvalues --    0.30869   0.32177   0.34021   0.36660   0.37159
 Alpha virt. eigenvalues --    0.38524   0.39044   0.40351   0.40676   0.41455
 Alpha virt. eigenvalues --    0.41502   0.41811   0.44614   0.44930   0.45894
 Alpha virt. eigenvalues --    0.46418   0.46918   0.48170   0.48772   0.49855
 Alpha virt. eigenvalues --    0.50211   0.51070   0.51236   0.52750   0.53127
 Alpha virt. eigenvalues --    0.53490   0.54737   0.59376   0.59740   0.60707
 Alpha virt. eigenvalues --    0.60736   0.62924   0.62934   0.63490   0.64375
 Alpha virt. eigenvalues --    0.66165   0.67350   0.68513   0.68591   0.69950
 Alpha virt. eigenvalues --    0.70531   0.70611   0.73332   0.73882   0.74650
 Alpha virt. eigenvalues --    0.78295   0.79519   0.80180   0.82050   0.82300
 Alpha virt. eigenvalues --    0.83645   0.86353   0.89851   0.91067   0.91095
 Alpha virt. eigenvalues --    0.92523   0.95917   0.97441   0.99409   1.01269
 Alpha virt. eigenvalues --    1.04401   1.04510   1.05992   1.09427   1.11853
 Alpha virt. eigenvalues --    1.12001   1.12371   1.13662   1.14484   1.15921
 Alpha virt. eigenvalues --    1.16283   1.18510   1.19489   1.20559   1.23953
 Alpha virt. eigenvalues --    1.25061   1.26727   1.28854   1.29072   1.30230
 Alpha virt. eigenvalues --    1.31914   1.32994   1.37203   1.38624   1.38942
 Alpha virt. eigenvalues --    1.41795   1.42264   1.42861   1.44515   1.44672
 Alpha virt. eigenvalues --    1.46521   1.46981   1.48959   1.49575   1.50083
 Alpha virt. eigenvalues --    1.50347   1.56060   1.57375   1.58854   1.59884
 Alpha virt. eigenvalues --    1.60095   1.62505   1.63066   1.65344   1.66226
 Alpha virt. eigenvalues --    1.67913   1.69575   1.70661   1.72653   1.72744
 Alpha virt. eigenvalues --    1.74614   1.76146   1.77504   1.78528   1.78916
 Alpha virt. eigenvalues --    1.79309   1.81491   1.82537   1.82821   1.85110
 Alpha virt. eigenvalues --    1.86330   1.86843   1.86916   1.87599   1.90849
 Alpha virt. eigenvalues --    1.92083   1.92861   1.98601   2.00498   2.00590
 Alpha virt. eigenvalues --    2.03514   2.09737   2.10553   2.11804   2.15340
 Alpha virt. eigenvalues --    2.16150   2.16974   2.19451   2.19788   2.22740
 Alpha virt. eigenvalues --    2.24194   2.27705   2.28412   2.29109   2.30301
 Alpha virt. eigenvalues --    2.32656   2.35345   2.37404   2.38450   2.41632
 Alpha virt. eigenvalues --    2.43245   2.43453   2.44976   2.45332   2.47489
 Alpha virt. eigenvalues --    2.47938   2.53709   2.53981   2.54470   2.55730
 Alpha virt. eigenvalues --    2.60170   2.62721   2.66053   2.66533   2.70317
 Alpha virt. eigenvalues --    2.71693   2.73105   2.73799   2.74800   2.75924
 Alpha virt. eigenvalues --    2.76583   2.80375   2.83773   2.84461   2.84647
 Alpha virt. eigenvalues --    2.89400   2.89506   2.90807   2.95957   2.97160
 Alpha virt. eigenvalues --    2.97822   3.00730   3.02579   3.03524   3.05551
 Alpha virt. eigenvalues --    3.08952   3.14868   3.18926   3.19379   3.25513
 Alpha virt. eigenvalues --    3.26223   3.30953   3.33785   3.40497   3.43874
 Alpha virt. eigenvalues --    3.46877   3.48939   3.49114   3.51461   3.53394
 Alpha virt. eigenvalues --    3.53936   3.55977   3.58970   3.68534   3.70594
 Alpha virt. eigenvalues --    3.72164   3.73074   3.76551   3.77896   3.80185
 Alpha virt. eigenvalues --    3.84742   3.90431   3.90901   3.91012   3.93838
 Alpha virt. eigenvalues --    3.99413   4.02246   4.04597   4.05060   4.11822
 Alpha virt. eigenvalues --    4.17817   4.19616   4.21851   4.22223   4.23855
 Alpha virt. eigenvalues --    4.26013   4.29466   4.33651   4.39068   4.40469
 Alpha virt. eigenvalues --    4.44654   4.47499   4.61722   4.63566   4.72008
 Alpha virt. eigenvalues --    4.72275   4.76779   4.79428   4.85882   4.88716
 Alpha virt. eigenvalues --    4.97277   5.01098   5.02952   5.05615   5.21720
 Alpha virt. eigenvalues --    5.32668   5.44345   5.51876   5.53694   5.54280
 Alpha virt. eigenvalues --    5.64585   5.70859   5.72448   5.99581   6.00523
 Alpha virt. eigenvalues --    6.00640   6.02067   6.07118   6.08590   6.14882
 Alpha virt. eigenvalues --    6.15861   6.33235   6.37001   6.38382   6.40380
 Alpha virt. eigenvalues --    6.42191   6.45640   6.53822   6.56561   6.59178
 Alpha virt. eigenvalues --    6.60303   6.61301   6.62648   6.69384   6.70327
 Alpha virt. eigenvalues --    6.82400   6.85304   6.89312   6.94590   6.96583
 Alpha virt. eigenvalues --    7.00821   7.02608   7.02682   7.04778   7.05897
 Alpha virt. eigenvalues --    7.14241   7.22450   7.24243   7.25510   7.26512
 Alpha virt. eigenvalues --    7.32477   7.33395   7.36737   7.39306   7.44175
 Alpha virt. eigenvalues --    7.50059   7.55512   7.56533   7.71089   7.72136
 Alpha virt. eigenvalues --    7.78947   7.80852   7.82147   7.82978   7.84754
 Alpha virt. eigenvalues --    7.85444   7.88480   7.92024   7.94417   7.97018
 Alpha virt. eigenvalues --    8.00627   8.02525   8.03934   8.05792   8.07684
 Alpha virt. eigenvalues --    8.10623   8.15746   8.17594   8.23322   8.25911
 Alpha virt. eigenvalues --    8.26968   8.27375   8.28542   8.31860   8.41937
 Alpha virt. eigenvalues --    8.46361   8.48059   8.49296   8.53383   8.56781
 Alpha virt. eigenvalues --    8.56917   8.58964   8.60501   8.63974   8.64469
 Alpha virt. eigenvalues --    8.70479   8.76484   8.85787   8.86040   8.86110
 Alpha virt. eigenvalues --    8.89290   8.94569   8.95445   8.96806   8.97621
 Alpha virt. eigenvalues --    9.11835   9.13053   9.14506   9.16948   9.19376
 Alpha virt. eigenvalues --    9.21742   9.24458   9.25989   9.28490   9.35379
 Alpha virt. eigenvalues --    9.36406   9.42149   9.54116   9.54144   9.58140
 Alpha virt. eigenvalues --    9.59604   9.62271   9.63712   9.70643   9.73119
 Alpha virt. eigenvalues --    9.75596   9.77512   9.87921   9.90667   9.91223
 Alpha virt. eigenvalues --   10.12636  10.16955  10.22822  10.28743  10.33853
 Alpha virt. eigenvalues --   10.38196  10.71514  10.85731  11.03373  11.15448
 Alpha virt. eigenvalues --   11.16294  11.23543  11.28574  11.29890  11.41311
 Alpha virt. eigenvalues --   11.41953  11.52881  11.72723  11.78422  11.95316
 Alpha virt. eigenvalues --   12.29478  12.32504  12.42340  12.43655  12.75056
 Alpha virt. eigenvalues --   12.87543  13.99027  14.07588  14.30615  14.31332
 Alpha virt. eigenvalues --   25.37373  33.78658  33.89755
          Condensed to atoms (all electrons):
              1          2          3          4          5          6
     1  C    5.097959   0.254115   0.370033  -0.040691  -0.006544   0.370033
     2  H    0.254115   0.212623  -0.056944  -0.002034   0.001160  -0.056944
     3  N    0.370033  -0.056944   6.600702   0.383976   0.328046  -0.095521
     4  H   -0.040691  -0.002034   0.383976   0.381310  -0.048011   0.013743
     5  H   -0.006544   0.001160   0.328046  -0.048011   0.345105  -0.016195
     6  N    0.370033  -0.056944  -0.095521   0.013743  -0.016195   6.600702
     7  H   -0.006544   0.001160  -0.016195  -0.000300   0.007331   0.328046
     8  H   -0.040691  -0.002034   0.013743  -0.000804  -0.000300   0.383976
              7          8
     1  C   -0.006544  -0.040691
     2  H    0.001160  -0.002034
     3  N   -0.016195   0.013743
     4  H   -0.000300  -0.000804
     5  H    0.007331  -0.000300
     6  N    0.328046   0.383976
     7  H    0.345105  -0.048011
     8  H   -0.048011   0.381310
 Mulliken atomic charges:
              1
     1  C    0.002331
     2  H    0.648901
     3  N   -0.527838
     4  H    0.312812
     5  H    0.389410
     6  N   -0.527838
     7  H    0.389410
     8  H    0.312812
 Sum of Mulliken atomic charges =   1.00000
 Mulliken charges with hydrogens summed into heavy atoms:
              1
     1  C    0.651232
     3  N    0.174384
     6  N    0.174384
 Sum of Mulliken charges with hydrogens summed into heavy atoms =   1.00000
 APT atomic charges:
              1
     1  C    0.789569
     2  H    0.127135
     3  N   -0.527132
     4  H    0.303452
     5  H    0.265328
     6  N   -0.527132
     7  H    0.265328
     8  H    0.303452
 Sum of APT charges=   1.00000
 APT Atomic charges with hydrogens summed into heavy atoms:
              1
     1  C    0.916704
     2  H    0.000000
     3  N    0.041648
     4  H    0.000000
     5  H    0.000000
     6  N    0.041648
     7  H    0.000000
     8  H    0.000000
 Sum of APT charges=   1.00000
 Electronic spatial extent (au):  <R**2>=            158.8680
 Charge=              1.0000 electrons
 Dipole moment (field-independent basis, Debye):
    X=              0.0000    Y=              0.0000    Z=             -0.2856  Tot=              0.2856
 Quadrupole moment (field-independent basis, Debye-Ang):
   XX=            -19.1415   YY=             -4.3219   ZZ=            -10.4458
   XY=              0.0000   XZ=              0.0000   YZ=              0.0000
 Traceless Quadrupole moment (field-independent basis, Debye-Ang):
   XX=             -7.8384   YY=              6.9811   ZZ=              0.8573
   XY=              0.0000   XZ=              0.0000   YZ=              0.0000
 Octapole moment (field-independent basis, Debye-Ang**2):
  XXX=              0.0000  YYY=              0.0000  ZZZ=             -3.2717  XYY=              0.0000
  XXY=              0.0000  XXZ=             -0.1210  XZZ=              0.0000  YZZ=              0.0000
  YYZ=             -0.0650  XYZ=              0.0000
 Hexadecapole moment (field-independent basis, Debye-Ang**3):
 XXXX=            -17.7626 YYYY=            -72.0413 ZZZZ=            -24.2485 XXXY=              0.0000
 XXXZ=              0.0000 YYYX=              0.0000 YYYZ=              0.0000 ZZZX=              0.0000
 ZZZY=              0.0000 XXYY=            -27.5419 XXZZ=             -9.7074 YYZZ=            -18.3018
 XXYZ=              0.0000 YYXZ=              0.0000 ZZXY=              0.0000
 N-N= 7.942410646830D+01 E-N=-5.029617967349D+02  KE= 1.496022330839D+02
 Symmetry A1   KE= 8.860197844579D+01
 Symmetry A2   KE= 3.579319652502D+00
 Symmetry B1   KE= 2.762845980770D+00
 Symmetry B2   KE= 5.465808900487D+01
  Exact polarizability:  18.654   0.000  38.249   0.000   0.000  25.592
 Approx polarizability:  27.281   0.000  70.765   0.000   0.000  40.638
 No NMR shielding tensors so no spin-rotation constants.
 Leave Link  601 at Thu Feb 26 01:10:12 2015, MaxMem= 1073741824 cpu:       8.5
 (Enter /apps/gaussian/g09_c01/g09/l701.exe)
 Compute integral second derivatives.
 ... and contract with generalized density number  0.
 Leave Link  701 at Thu Feb 26 01:10:13 2015, MaxMem= 1073741824 cpu:       6.1
 (Enter /apps/gaussian/g09_c01/g09/l702.exe)
 L702 exits ... SP integral derivatives will be done elsewhere.
 Leave Link  702 at Thu Feb 26 01:10:13 2015, MaxMem= 1073741824 cpu:       0.1
 (Enter /apps/gaussian/g09_c01/g09/l703.exe)
 Compute integral second derivatives, UseDBF=F ICtDFT=           0.
 Integral derivatives from FoFDir, PRISM(SPDF).
 Calling FoFJK, ICntrl=    100527 FMM=F ISym2X=1 I1Cent= 0 IOpClX= 0 NMat=1 NMatS=1 NMatT=0.
 FoFCou: FMM=F IPFlag=           0 FMFlag=      100000 FMFlg1=         800
         NFxFlg=           0 DoJE=F BraDBF=F KetDBF=F FulRan=T
         Omega=  0.000000  0.000000  1.000000  0.000000  0.000000 ICntrl=  100527 IOpCl=  0
         NMat0=    1 NMatS0=    1 NMatT0=    0 NMatD0=    1 NMtDS0=    0 NMtDT0=    0
         I1Cent=           0 NGrid=           0.
 Petite list used in FoFCou.
 Leave Link  703 at Thu Feb 26 01:29:55 2015, MaxMem= 1073741824 cpu:    9448.0
 (Enter /apps/gaussian/g09_c01/g09/l716.exe)
 Dipole        =-1.22894623D-16-1.53554849D-13-1.12382970D-01
 Polarizability= 1.86544504D+01-7.30119107D-13 3.82494961D+01
                -3.14790477D-14 3.68665770D-13 2.55924086D+01
 HyperPolar    =-9.58837987D-11 6.89404585D-12-5.17918104D-11
                -1.90772992D-10-3.19518672D-01-4.91487136D-11
                 2.25433730D+01-7.86715980D-11-2.38567145D-10
                -8.26345751D+00
 ***** Axes restored to original set *****
 -------------------------------------------------------------------
 Center     Atomic                   Forces (Hartrees/Bohr)
 Number     Number              X              Y              Z
 -------------------------------------------------------------------
      1        6           0.000000000   -0.001864720    0.000000000
      2        1           0.000000000    0.003238172    0.000000000
      3        7          -0.000867971   -0.000231978    0.000000000
      4        1           0.001173059    0.001408660    0.000000000
      5        1          -0.000105106   -0.001863408    0.000000000
      6        7           0.000867971   -0.000231978    0.000000000
      7        1           0.000105106   -0.001863408    0.000000000
      8        1          -0.001173059    0.001408660    0.000000000
 -------------------------------------------------------------------
 Cartesian Forces:  Max     0.003238172 RMS     0.001104249
 Force constants in Cartesian coordinates: 
                1             2             3             4             5 
      1  0.901578D+00
      2  0.000000D+00  0.797413D+00
      3  0.000000D+00  0.000000D+00  0.151725D+00
      4 -0.575770D-01  0.000000D+00  0.000000D+00  0.653030D-01
      5  0.000000D+00 -0.337494D+00  0.000000D+00  0.000000D+00  0.353751D+00
      6  0.000000D+00  0.000000D+00 -0.480402D-01  0.000000D+00  0.000000D+00
      7 -0.397339D+00  0.149219D+00  0.000000D+00 -0.111527D-02  0.229782D-02
      8  0.140718D+00 -0.234584D+00  0.000000D+00  0.340778D-01 -0.104739D-01
      9  0.000000D+00  0.000000D+00 -0.467909D-01  0.000000D+00  0.000000D+00
     10 -0.263248D-01 -0.164349D-01  0.000000D+00  0.111474D-02  0.844705D-04
     11  0.163029D-01  0.145047D-01  0.000000D+00  0.971185D-03  0.748548D-03
     12  0.000000D+00  0.000000D+00 -0.625193D-02  0.000000D+00  0.000000D+00
     13  0.166332D-02  0.350896D-01  0.000000D+00 -0.386252D-02  0.878924D-03
     14  0.703575D-02 -0.988000D-02  0.000000D+00  0.110216D-02  0.159685D-02
     15  0.000000D+00  0.000000D+00  0.120064D-02  0.000000D+00  0.000000D+00
     16 -0.397339D+00 -0.149219D+00  0.000000D+00 -0.111527D-02 -0.229783D-02
     17 -0.140718D+00 -0.234584D+00  0.000000D+00 -0.340778D-01 -0.104739D-01
     18  0.000000D+00  0.000000D+00 -0.467909D-01  0.000000D+00  0.000000D+00
     19  0.166331D-02 -0.350896D-01  0.000000D+00 -0.386252D-02 -0.878924D-03
     20 -0.703575D-02 -0.988000D-02  0.000000D+00 -0.110216D-02  0.159685D-02
     21  0.000000D+00  0.000000D+00  0.120064D-02  0.000000D+00  0.000000D+00
     22 -0.263248D-01  0.164349D-01  0.000000D+00  0.111474D-02 -0.844677D-04
     23 -0.163029D-01  0.145047D-01  0.000000D+00 -0.971185D-03  0.748546D-03
     24  0.000000D+00  0.000000D+00 -0.625193D-02  0.000000D+00  0.000000D+00
                6             7             8             9            10 
      6  0.275517D-01
      7  0.000000D+00  0.866968D+00
      8  0.000000D+00 -0.166042D-01  0.822608D+00
      9  0.667581D-02  0.000000D+00  0.000000D+00  0.484472D-01
     10  0.000000D+00 -0.322755D+00 -0.170766D+00  0.000000D+00  0.337396D+00
     11  0.000000D+00 -0.174817D+00 -0.182925D+00  0.000000D+00  0.177570D+00
     12 -0.388743D-02  0.000000D+00  0.000000D+00 -0.807134D-02  0.000000D+00
     13  0.000000D+00 -0.729869D-01  0.298257D-01  0.000000D+00  0.952885D-02
     14  0.000000D+00  0.284984D-01 -0.424806D+00  0.000000D+00  0.509003D-02
     15  0.745589D-02  0.000000D+00  0.000000D+00 -0.146204D-01  0.000000D+00
     16  0.000000D+00 -0.767652D-01 -0.126575D-01  0.000000D+00  0.178953D-02
     17  0.000000D+00  0.126575D-01  0.308021D-01  0.000000D+00  0.510488D-02
     18  0.667581D-02  0.000000D+00  0.000000D+00  0.123203D-01  0.000000D+00
     19  0.000000D+00  0.220334D-02  0.510575D-03  0.000000D+00 -0.993438D-04
     20  0.000000D+00  0.489990D-02  0.839492D-03  0.000000D+00 -0.179221D-03
     21  0.745589D-02  0.000000D+00  0.000000D+00 -0.356500D-02  0.000000D+00
     22  0.000000D+00  0.178953D-02 -0.510488D-02  0.000000D+00 -0.650141D-03
     23  0.000000D+00 -0.615083D-02 -0.145901D-02  0.000000D+00 -0.469272D-03
     24 -0.388743D-02  0.000000D+00  0.000000D+00  0.560424D-02  0.000000D+00
               11            12            13            14            15 
     11  0.177867D+00
     12  0.000000D+00  0.111571D-01
     13 -0.268962D-01  0.000000D+00  0.650808D-01
     14 -0.907543D-02  0.000000D+00 -0.375717D-01  0.441184D+00
     15  0.000000D+00 -0.117079D-02  0.000000D+00  0.000000D+00  0.112034D-01
     16  0.615083D-02  0.000000D+00  0.220334D-02 -0.489990D-02  0.000000D+00
     17 -0.145901D-02  0.000000D+00 -0.510575D-03  0.839492D-03  0.000000D+00
     18  0.000000D+00  0.560424D-02  0.000000D+00  0.000000D+00 -0.356500D-02
     19  0.249643D-03  0.000000D+00 -0.152754D-02  0.566056D-03  0.000000D+00
     20 -0.507132D-03  0.000000D+00 -0.566056D-03  0.648393D-03  0.000000D+00
     21  0.000000D+00 -0.559787D-03  0.000000D+00  0.000000D+00  0.560835D-04
     22  0.469272D-03  0.000000D+00 -0.993438D-04  0.179221D-03  0.000000D+00
     23  0.847194D-03  0.000000D+00 -0.249643D-03 -0.507132D-03  0.000000D+00
     24  0.000000D+00  0.317997D-02  0.000000D+00  0.000000D+00 -0.559787D-03
               16            17            18            19            20 
     16  0.866968D+00
     17  0.166042D-01  0.822608D+00
     18  0.000000D+00  0.000000D+00  0.484472D-01
     19 -0.729869D-01 -0.298257D-01  0.000000D+00  0.650808D-01
     20 -0.284984D-01 -0.424806D+00  0.000000D+00  0.375717D-01  0.441184D+00
     21  0.000000D+00  0.000000D+00 -0.146204D-01  0.000000D+00  0.000000D+00
     22 -0.322755D+00  0.170766D+00  0.000000D+00  0.952885D-02 -0.509003D-02
     23  0.174817D+00 -0.182925D+00  0.000000D+00  0.268962D-01 -0.907543D-02
     24  0.000000D+00  0.000000D+00 -0.807134D-02  0.000000D+00  0.000000D+00
               21            22            23            24 
     21  0.112034D-01
     22  0.000000D+00  0.337396D+00
     23  0.000000D+00 -0.177570D+00  0.177867D+00
     24 -0.117079D-02  0.000000D+00  0.000000D+00  0.111571D-01
 Force constants in internal coordinates: 
                1             2             3             4             5 
      1  0.353751D+00
      2  0.662346D-02  0.587585D+00
      3  0.662346D-02  0.506821D-01  0.587585D+00
      4  0.474651D-03  0.542735D-02 -0.551348D-02  0.452285D+00
      5 -0.149721D-02  0.864307D-02 -0.321545D-02 -0.690188D-04  0.444890D+00
      6 -0.149720D-02 -0.321545D-02  0.864307D-02  0.416875D-03  0.775114D-03
      7  0.474646D-03 -0.551348D-02  0.542735D-02  0.280838D-03  0.416876D-03
      8  0.370534D-02  0.824737D-02 -0.328188D-01 -0.245166D-02  0.385466D-02
      9  0.370534D-02 -0.328188D-01  0.824737D-02  0.549961D-03  0.781785D-03
     10 -0.741068D-02  0.245714D-01  0.245714D-01  0.190170D-02 -0.463644D-02
     11 -0.141234D-02  0.165921D-01  0.369951D-02  0.204257D-02 -0.834673D-02
     12  0.170399D-02  0.755037D-02 -0.143630D-02 -0.725973D-02  0.241396D-02
     13 -0.291656D-03 -0.241424D-01 -0.226321D-02  0.521716D-02  0.593277D-02
     14  0.170399D-02 -0.143630D-02  0.755038D-02 -0.190409D-03  0.101672D-02
     15 -0.141234D-02  0.369951D-02  0.165921D-01  0.198352D-03 -0.796667D-03
     16 -0.291654D-03 -0.226321D-02 -0.241424D-01 -0.794352D-05 -0.220049D-03
     17  0.000000D+00  0.000000D+00  0.000000D+00  0.000000D+00  0.000000D+00
     18  0.000000D+00  0.000000D+00  0.000000D+00  0.000000D+00  0.000000D+00
     19  0.000000D+00  0.000000D+00  0.000000D+00  0.000000D+00  0.000000D+00
     20  0.000000D+00  0.000000D+00  0.000000D+00  0.000000D+00  0.000000D+00
     21  0.000000D+00  0.000000D+00  0.000000D+00  0.000000D+00  0.000000D+00
     22  0.000000D+00  0.000000D+00  0.000000D+00  0.000000D+00  0.000000D+00
     23  0.000000D+00  0.000000D+00  0.000000D+00  0.000000D+00  0.000000D+00
     24  0.000000D+00  0.000000D+00  0.000000D+00  0.000000D+00  0.000000D+00
                6             7             8             9            10 
      6  0.444890D+00
      7 -0.690181D-04  0.452285D+00
      8  0.781784D-03  0.549961D-03  0.106893D+00
      9  0.385466D-02 -0.245166D-02 -0.341020D-01  0.106893D+00
     10 -0.463644D-02  0.190170D-02 -0.727911D-01 -0.727911D-01  0.145582D+00
     11 -0.796668D-03  0.198353D-03 -0.796883D-02 -0.363848D-02  0.116073D-01
     12  0.101672D-02 -0.190409D-03  0.911630D-02 -0.396217D-03 -0.872009D-02
     13 -0.220049D-03 -0.794400D-05 -0.114747D-02  0.403469D-02 -0.288722D-02
     14  0.241396D-02 -0.725973D-02 -0.396216D-03  0.911630D-02 -0.872009D-02
     15 -0.834673D-02  0.204257D-02 -0.363848D-02 -0.796883D-02  0.116073D-01
     16  0.593277D-02  0.521716D-02  0.403469D-02 -0.114747D-02 -0.288722D-02
     17  0.000000D+00  0.000000D+00  0.000000D+00  0.000000D+00  0.000000D+00
     18  0.000000D+00  0.000000D+00  0.000000D+00  0.000000D+00  0.000000D+00
     19  0.000000D+00  0.000000D+00  0.000000D+00  0.000000D+00  0.000000D+00
     20  0.000000D+00  0.000000D+00  0.000000D+00  0.000000D+00  0.000000D+00
     21  0.000000D+00  0.000000D+00  0.000000D+00  0.000000D+00  0.000000D+00
     22  0.000000D+00  0.000000D+00  0.000000D+00  0.000000D+00  0.000000D+00
     23  0.000000D+00  0.000000D+00  0.000000D+00  0.000000D+00  0.000000D+00
     24  0.000000D+00  0.000000D+00  0.000000D+00  0.000000D+00  0.000000D+00
               11            12            13            14            15 
     11  0.828110D-01
     12 -0.444839D-01  0.812040D-01
     13 -0.383271D-01 -0.367201D-01  0.750472D-01
     14 -0.153221D-02  0.230499D-02 -0.772783D-03  0.812040D-01
     15  0.207163D-02 -0.153221D-02 -0.539423D-03 -0.444839D-01  0.828110D-01
     16 -0.539423D-03 -0.772784D-03  0.131221D-02 -0.367201D-01 -0.383271D-01
     17  0.000000D+00  0.000000D+00  0.000000D+00  0.000000D+00  0.000000D+00
     18  0.000000D+00  0.000000D+00  0.000000D+00  0.000000D+00  0.000000D+00
     19  0.000000D+00  0.000000D+00  0.000000D+00  0.000000D+00  0.000000D+00
     20  0.000000D+00  0.000000D+00  0.000000D+00  0.000000D+00  0.000000D+00
     21  0.000000D+00  0.000000D+00  0.000000D+00  0.000000D+00  0.000000D+00
     22  0.000000D+00  0.000000D+00  0.000000D+00  0.000000D+00  0.000000D+00
     23  0.000000D+00  0.000000D+00  0.000000D+00  0.000000D+00  0.000000D+00
     24  0.000000D+00  0.000000D+00  0.000000D+00  0.000000D+00  0.000000D+00
               16            17            18            19            20 
     16  0.750472D-01
     17  0.000000D+00  0.981792D-02
     18  0.000000D+00  0.433439D-02  0.131670D-01
     19  0.000000D+00  0.383905D-02 -0.548757D-02  0.156782D-01
     20  0.000000D+00 -0.164448D-02  0.334502D-02  0.635154D-02  0.113410D-01
     21  0.000000D+00 -0.381980D-02 -0.540377D-02  0.600216D-02  0.441820D-02
     22  0.000000D+00 -0.370788D-02 -0.381980D-02  0.227099D-02  0.215907D-02
     23  0.000000D+00  0.215907D-02  0.441820D-02 -0.583695D-02 -0.357782D-02
     24  0.000000D+00  0.227099D-02  0.600216D-02 -0.956812D-02 -0.583695D-02
               21            22            23            24 
     21  0.131670D-01
     22  0.433439D-02  0.981792D-02
     23  0.334502D-02 -0.164448D-02  0.113410D-01
     24 -0.548757D-02  0.383905D-02  0.635154D-02  0.156782D-01
 Leave Link  716 at Thu Feb 26 01:29:55 2015, MaxMem= 1073741824 cpu:       0.3
 (Enter /apps/gaussian/g09_c01/g09/l103.exe)

 GradGradGradGradGradGradGradGradGradGradGradGradGradGradGradGradGradGrad
 Berny optimization.
 Red2BG is reusing G-inverse.
 Internal  Forces:  Max     0.003238172 RMS     0.001029173
 Search for a local minimum.
 Step number   1 out of a maximum of   34
 All quantities printed in internal units (Hartrees-Bohrs-Radians)
 RMS Force = .10292D-02 SwitMx=.10000D-02 MixMth= 1
 Mixed Optimization -- RFO/linear search
 Second derivative matrix not updated -- analytic derivatives used.
 ITU=  0
     Eigenvalues ---    0.01193   0.01296   0.01582   0.01986   0.03944
     Eigenvalues ---    0.10750   0.11215   0.11827   0.12344   0.14198
     Eigenvalues ---    0.21898   0.35432   0.44280   0.44641   0.45155
     Eigenvalues ---    0.45289   0.54528   0.64519
 RFO step:  Lambda=-6.88095851D-05 EMin= 1.19259008D-02
 Linear search not attempted -- first point.
 Iteration  1 RMS(Cart)=  0.00315160 RMS(Int)=  0.00000415
 Iteration  2 RMS(Cart)=  0.00000487 RMS(Int)=  0.00000000
 Iteration  3 RMS(Cart)=  0.00000000 RMS(Int)=  0.00000000
 ClnCor:  largest displacement from symmetrization is 1.15D-10 for atom     7.
 Variable       Old X    -DE/DX   Delta X   Delta X   Delta X     New X
                                 (Linear)    (Quad)   (Total)
    R1        2.05337   0.00324   0.00000   0.00906   0.00906   2.06243
    R2        2.48365   0.00049   0.00000   0.00106   0.00106   2.48472
    R3        2.48365   0.00049   0.00000   0.00106   0.00106   2.48472
    R4        1.91586   0.00175   0.00000   0.00381   0.00381   1.91967
    R5        1.91959   0.00184   0.00000   0.00399   0.00399   1.92357
    R6        1.91959   0.00184   0.00000   0.00399   0.00399   1.92357
    R7        1.91586   0.00175   0.00000   0.00381   0.00381   1.91967
    A1        2.04681   0.00027   0.00000   0.00090   0.00090   2.04771
    A2        2.04681   0.00027   0.00000   0.00090   0.00090   2.04771
    A3        2.18957  -0.00053   0.00000  -0.00180  -0.00180   2.18777
    A4        2.09627  -0.00052   0.00000  -0.00381  -0.00381   2.09246
    A5        2.15059  -0.00003   0.00000  -0.00074  -0.00074   2.14985
    A6        2.03632   0.00054   0.00000   0.00456   0.00456   2.04088
    A7        2.15059  -0.00003   0.00000  -0.00074  -0.00074   2.14985
    A8        2.09627  -0.00052   0.00000  -0.00381  -0.00381   2.09246
    A9        2.03632   0.00054   0.00000   0.00456   0.00456   2.04088
    D1        0.00000   0.00000   0.00000   0.00000   0.00000   0.00000
    D2        3.14159   0.00000   0.00000   0.00000   0.00000   3.14159
    D3        3.14159   0.00000   0.00000   0.00000   0.00000   3.14159
    D4        0.00000   0.00000   0.00000   0.00000   0.00000   0.00000
    D5        3.14159   0.00000   0.00000   0.00000   0.00000   3.14159
    D6        0.00000   0.00000   0.00000   0.00000   0.00000   0.00000
    D7        0.00000   0.00000   0.00000   0.00000   0.00000   0.00000
    D8        3.14159   0.00000   0.00000   0.00000   0.00000   3.14159
         Item               Value     Threshold  Converged?
 Maximum Force            0.003238     0.000002     NO 
 RMS     Force            0.001029     0.000001     NO 
 Maximum Displacement     0.009167     0.000006     NO 
 RMS     Displacement     0.003152     0.000004     NO 
 Predicted change in Energy=-3.441243D-05
 GradGradGradGradGradGradGradGradGradGradGradGradGradGradGradGradGradGrad

 Leave Link  103 at Thu Feb 26 01:29:55 2015, MaxMem= 1073741824 cpu:       0.1
 (Enter /apps/gaussian/g09_c01/g09/l202.exe)
                          Input orientation:                          
 ---------------------------------------------------------------------
 Center     Atomic      Atomic             Coordinates (Angstroms)
 Number     Number       Type             X           Y           Z
 ---------------------------------------------------------------------
      1          6           0        0.000000    0.427325    0.000000
      2          1           0        0.000000    1.518715    0.000000
      3          7           0        1.168139   -0.176244    0.000000
      4          1           0        2.022161    0.373837    0.000000
      5          1           0        1.271927   -1.188850    0.000000
      6          7           0       -1.168139   -0.176244    0.000000
      7          1           0       -1.271927   -1.188850    0.000000
      8          1           0       -2.022161    0.373837    0.000000
 ---------------------------------------------------------------------
                    Distance matrix (angstroms):
                    1          2          3          4          5
     1  C    0.000000
     2  H    1.091390   0.000000
     3  N    1.314855   2.058503   0.000000
     4  H    2.022869   2.323765   1.015846   0.000000
     5  H    2.056653   2.991439   1.017912   1.733449   0.000000
     6  N    1.314855   2.058503   2.336277   3.237376   2.641835
     7  H    2.056653   2.991439   2.641835   3.645958   2.543854
     8  H    2.022869   2.323765   3.237376   4.044323   3.645958
                    6          7          8
     6  N    0.000000
     7  H    1.017912   0.000000
     8  H    1.015846   1.733449   0.000000
 Stoichiometry    CH5N2(1+)
 Framework group  C2V[C2(CH),SGV(H4N2)]
 Deg. of freedom     7
 Full point group                 C2V     NOp   4
 RotChk:  IX=0 Diff= 2.94D-16
 Largest Abelian subgroup         C2V     NOp   4
 Largest concise Abelian subgroup C2      NOp   2
                         Standard orientation:                         
 ---------------------------------------------------------------------
 Center     Atomic      Atomic             Coordinates (Angstroms)
 Number     Number       Type             X           Y           Z
 ---------------------------------------------------------------------
      1          6           0        0.000000    0.000000    0.427916
      2          1           0        0.000000    0.000000    1.519306
      3          7           0        0.000000    1.168139   -0.175653
      4          1           0        0.000000    2.022161    0.374428
      5          1           0        0.000000    1.271927   -1.188259
      6          7           0        0.000000   -1.168139   -0.175653
      7          1           0        0.000000   -1.271927   -1.188259
      8          1           0        0.000000   -2.022161    0.374428
 ---------------------------------------------------------------------
 Rotational constants (GHZ):     59.3436103     10.1647228      8.6782595
 Leave Link  202 at Thu Feb 26 01:29:55 2015, MaxMem= 1073741824 cpu:       0.0
 (Enter /apps/gaussian/g09_c01/g09/l301.exe)
 Standard basis: Aug-CC-pVQZ (5D, 7F)
 Ernie: Thresh=  0.10000D-02 Tol=  0.10000D-05 Strict=F.
 Ernie:  9 primitive shells out of 194 were deleted.
 There are   160 symmetry adapted basis functions of A1  symmetry.
 There are    78 symmetry adapted basis functions of A2  symmetry.
 There are    92 symmetry adapted basis functions of B1  symmetry.
 There are   140 symmetry adapted basis functions of B2  symmetry.
 Integral buffers will be    131072 words long.
 Raffenetti 2 integral format.
 Two-electron integral symmetry is turned on.
   470 basis functions,   657 primitive gaussians,   590 cartesian basis functions
    12 alpha electrons       12 beta electrons
       nuclear repulsion energy        79.3530226838 Hartrees.
 IExCor= 1009 DFT=T Ex=PBE Corr=PBE ExCW=0 ScaHFX=  0.000000
 ScaDFX=  1.000000  1.000000  1.000000  1.000000 ScalE2=  1.000000  1.000000
 IRadAn=      5 IRanWt=     -1 IRanGd=            0 ICorTp=0
 NAtoms=    8 NActive=    8 NUniq=    5 SFac= 2.56D+00 NAtFMM=   60 NAOKFM=F Big=F
 Leave Link  301 at Thu Feb 26 01:29:55 2015, MaxMem= 1073741824 cpu:       0.3
 (Enter /apps/gaussian/g09_c01/g09/l302.exe)
 NPDir=0 NMtPBC=     1 NCelOv=     1 NCel=       1 NClECP=     1 NCelD=      1
         NCelK=      1 NCelE2=     1 NClLst=     1 CellRange=     0.0.
 One-electron integrals computed using PRISM.
 One-electron integral symmetry used in STVInt
 NBasis=   470 RedAO= T  NBF=   160    78    92   140
 NBsUse=   470 1.00D-06 NBFU=   160    78    92   140
 Precomputing XC quadrature grid using
 IXCGrd= 2 IRadAn=           5 IRanWt=          -1 IRanGd=           0 AccXCQ= 0.00D+00.
 NRdTot=     687 NPtTot=      185464 NUsed=      190390 NTot=      190422
 NSgBfM=   590   590   590   590   590 NAtAll=     8     8.
 Leave Link  302 at Thu Feb 26 01:29:56 2015, MaxMem= 1073741824 cpu:       3.3
 (Enter /apps/gaussian/g09_c01/g09/l303.exe)
 DipDrv:  MaxL=1.
 Leave Link  303 at Thu Feb 26 01:29:56 2015, MaxMem= 1073741824 cpu:       0.5
 (Enter /apps/gaussian/g09_c01/g09/l401.exe)
 Initial guess read from the read-write file.
 B after Tr=     0.000000    0.000000    0.000000
         Rot=    1.000000    0.000000    0.000000    0.000000 Ang=   0.00 deg.
 Guess basis will be translated and rotated to current coordinates.
 Initial guess orbital symmetries:
       Occupied  (B2) (A1) (A1) (A1) (B2) (A1) (A1) (B2) (B2) (A1)
                 (B1) (A2)
       Virtual   (B1) (A1) (A1) (B2) (B2) (A1) (B1) (A1) (B2) (A1)
                 (B1) (A2) (A1) (B2) (A1) (A1) (B2) (B2) (B1) (A1)
                 (A2) (A1) (B2) (B1) (B2) (A1) (B1) (A1) (A1) (A2)
                 (A1) (B2) (B2) (A1) (B1) (A2) (B2) (A1) (B2) (A1)
                 (A1) (B2) (B1) (B2) (A1) (B1) (A2) (B1) (B2) (A1)
                 (B2) (A2) (A1) (B2) (A1) (A1) (B2) (B1) (A1) (B2)
                 (A1) (A2) (A1) (B1) (A2) (B2) (A1) (B1) (A1) (B2)
                 (B1) (A2) (B1) (B2) (A1) (B2) (A1) (B2) (A1) (A2)
                 (A1) (B1) (A2) (B1) (B2) (A1) (B2) (A2) (A1) (A2)
                 (B1) (B2) (A1) (B2) (B2) (A2) (A1) (B2) (A1) (A1)
                 (B1) (B1) (A1) (B2) (B2) (A1) (A2) (A1) (B2) (B1)
                 (B2) (B1) (A1) (A2) (A1) (B1) (A1) (B2) (A2) (A1)
                 (B2) (B1) (A1) (B2) (A1) (B1) (B2) (A2) (A1) (B2)
                 (A2) (A1) (B2) (B1) (B1) (B2) (A1) (A2) (B2) (A1)
                 (B1) (A2) (A1) (B1) (B2) (B2) (A1) (B1) (B2) (A2)
                 (A1) (A2) (B2) (A1) (A1) (B1) (B2) (A1) (A2) (B2)
                 (A1) (A1) (B1) (A2) (B2) (B1) (A1) (A1) (B1) (B2)
                 (B1) (A1) (A2) (B2) (A2) (A2) (B2) (B1) (A1) (B2)
                 (A1) (B1) (B1) (A1) (B2) (A2) (A1) (A1) (B2) (B2)
                 (A1) (A2) (B1) (B2) (A2) (B2) (A1) (B2) (B1) (A2)
                 (A1) (B1) (B2) (A1) (A1) (A2) (B1) (B2) (B2) (A1)
                 (B1) (A2) (B2) (B1) (A1) (A1) (B2) (A1) (A2) (B2)
                 (B1) (B2) (A2) (B1) (B2) (A1) (A1) (A1) (A2) (B2)
                 (B1) (A1) (A2) (A1) (B2) (B1) (B2) (A1) (A2) (B2)
                 (A1) (A1) (B2) (B1) (B2) (A1) (A2) (B2) (B1) (B2)
                 (A1) (A2) (A1) (B1) (B2) (A2) (A1) (B1) (A1) (B2)
                 (A1) (B1) (A2) (A1) (B2) (A2) (A1) (B2) (B1) (A1)
                 (B2) (A2) (B1) (A1) (B2) (A1) (A2) (B2) (B1) (A1)
                 (B2) (A1) (B2) (A2) (B2) (B1) (A1) (B1) (A1) (A2)
                 (B2) (B2) (B1) (A2) (A1) (B2) (A1) (A1) (B2) (A1)
                 (B2) (A1) (B2) (A2) (B1) (B1) (A1) (B1) (B2) (B1)
                 (A1) (A2) (B2) (A1) (B1) (A2) (B1) (A1) (A2) (B2)
                 (A1) (B2) (B1) (A1) (B2) (A2) (B2) (A1) (A1) (B1)
                 (A2) (B1) (B2) (B1) (B2) (A1) (B2) (A2) (B1) (A1)
                 (A1) (A2) (B2) (A2) (A1) (B2) (A2) (A1) (B1) (B1)
                 (B2) (A1) (A2) (B1) (A1) (A2) (B2) (A1) (B1) (B1)
                 (A2) (B2) (A1) (B2) (A1) (A1) (B2) (A1) (B1) (B2)
                 (A2) (B2) (B1) (B2) (A2) (A1) (B1) (A2) (A1) (B2)
                 (B1) (B2) (A1) (A1) (A2) (B1) (B2) (A2) (B2) (A1)
                 (A1) (B2) (B2) (B1) (A1) (A2) (A1) (A1) (B2) (A2)
                 (B1) (B2) (A1) (B1) (B1) (A1) (B2) (A1) (A2) (A2)
                 (B1) (B2) (B1) (B2) (A2) (A2) (A1) (B1) (A1) (B2)
                 (B1) (A1) (A2) (A1) (B2) (B2) (A2) (A1) (B2) (B1)
                 (B2) (A1) (A1) (B2) (B2) (A1) (A1) (B1) (A2) (B1)
                 (A2) (B2) (A1) (B2) (A1) (B2) (A1) (A1) (B2) (A1)
                 (B2) (A1) (B2) (B2) (A1) (A1) (A1) (B2)
 The electronic state of the initial guess is 1-A1.
 Leave Link  401 at Thu Feb 26 01:29:57 2015, MaxMem= 1073741824 cpu:       7.6
 (Enter /apps/gaussian/g09_c01/g09/l502.exe)
 Closed shell SCF:
 Requested convergence on RMS density matrix=1.00D-08 within 128 cycles.
 Requested convergence on MAX density matrix=1.00D-06.
 Requested convergence on             energy=1.00D-06.
 No special actions if energy rises.
 Using DIIS extrapolation, IDIIS=  1040.
 Integral symmetry usage will be decided dynamically.
       190305 words used for storage of precomputed grid.
 IEnd=     1262487 IEndB=     1262487 NGot=  1073741824 MDV=  1072844668
 LenX=  1072844668 LenY=  1072495978
 Fock matrices will be formed incrementally for  20 cycles.

 Cycle   1  Pass 1  IDiag  1:
 FoFCou: FMM=F IPFlag=           0 FMFlag=      100000 FMFlg1=           0
         NFxFlg=           0 DoJE=T BraDBF=F KetDBF=F FulRan=T
         Omega=  0.000000  0.000000  1.000000  0.000000  0.000000 ICntrl=     500 IOpCl=  0
         NMat0=    1 NMatS0=    1 NMatT0=    0 NMatD0=    1 NMtDS0=    0 NMtDT0=    0
         I1Cent=           0 NGrid=           0.
 Petite list used in FoFCou.
 E= -150.273260284209    
 DIIS: error= 4.14D-04 at cycle   1 NSaved=   1.
 NSaved= 1 IEnMin= 1 EnMin= -150.273260284209     IErMin= 1 ErrMin= 4.14D-04
 ErrMax= 4.14D-04 EMaxC= 1.00D-01 BMatC= 5.26D-05 BMatP= 5.26D-05
 IDIUse=3 WtCom= 9.96D-01 WtEn= 4.14D-03
 Coeff-Com:  0.100D+01
 Coeff-En:   0.100D+01
 Coeff:      0.100D+01
 Gap=     0.215 Goal=   None    Shift=    0.000
 RMSDP=1.27D-05 MaxDP=9.45D-04              OVMax= 1.80D-03

 Cycle   2  Pass 1  IDiag  1:
 RMSU=  8.94D-06    CP:  1.00D+00
 E= -150.273273337152     Delta-E=       -0.000013052942 Rises=F Damp=F
 DIIS: error= 1.74D-04 at cycle   2 NSaved=   2.
 NSaved= 2 IEnMin= 2 EnMin= -150.273273337152     IErMin= 2 ErrMin= 1.74D-04
 ErrMax= 1.74D-04 EMaxC= 1.00D-01 BMatC= 3.15D-06 BMatP= 5.26D-05
 IDIUse=3 WtCom= 9.98D-01 WtEn= 1.74D-03
 Coeff-Com:  0.934D-01 0.907D+00
 Coeff-En:   0.000D+00 0.100D+01
 Coeff:      0.932D-01 0.907D+00
 Gap=     0.206 Goal=   None    Shift=    0.000
 RMSDP=4.45D-06 MaxDP=3.23D-04 DE=-1.31D-05 OVMax= 8.85D-04

 Cycle   3  Pass 1  IDiag  1:
 RMSU=  2.98D-06    CP:  1.00D+00  9.11D-01
 E= -150.273272854602     Delta-E=        0.000000482549 Rises=F Damp=F
 DIIS: error= 1.60D-04 at cycle   3 NSaved=   3.
 NSaved= 3 IEnMin= 2 EnMin= -150.273273337152     IErMin= 3 ErrMin= 1.60D-04
 ErrMax= 1.60D-04 EMaxC= 1.00D-01 BMatC= 3.95D-06 BMatP= 3.15D-06
 IDIUse=3 WtCom= 4.42D-01 WtEn= 5.58D-01
 Coeff-Com:  0.114D-01 0.527D+00 0.462D+00
 Coeff-En:   0.000D+00 0.535D+00 0.465D+00
 Coeff:      0.504D-02 0.531D+00 0.464D+00
 Gap=     0.206 Goal=   None    Shift=    0.000
 RMSDP=2.18D-06 MaxDP=1.23D-04 DE= 4.83D-07 OVMax= 4.20D-04

 Cycle   4  Pass 1  IDiag  1:
 RMSU=  4.64D-07    CP:  1.00D+00  9.53D-01  5.38D-01
 E= -150.273276212918     Delta-E=       -0.000003358316 Rises=F Damp=F
 DIIS: error= 1.75D-05 at cycle   4 NSaved=   4.
 NSaved= 4 IEnMin= 4 EnMin= -150.273276212918     IErMin= 4 ErrMin= 1.75D-05
 ErrMax= 1.75D-05 EMaxC= 1.00D-01 BMatC= 4.04D-08 BMatP= 3.15D-06
 IDIUse=1 WtCom= 1.00D+00 WtEn= 0.00D+00
 Coeff-Com:  0.119D-02 0.185D+00 0.177D+00 0.637D+00
 Coeff:      0.119D-02 0.185D+00 0.177D+00 0.637D+00
 Gap=     0.206 Goal=   None    Shift=    0.000
 RMSDP=2.89D-07 MaxDP=2.15D-05 DE=-3.36D-06 OVMax= 1.09D-04

 Cycle   5  Pass 1  IDiag  1:
 RMSU=  1.32D-07    CP:  1.00D+00  9.57D-01  5.20D-01  6.98D-01
 E= -150.273276232979     Delta-E=       -0.000000020061 Rises=F Damp=F
 DIIS: error= 1.25D-05 at cycle   5 NSaved=   5.
 NSaved= 5 IEnMin= 5 EnMin= -150.273276232979     IErMin= 5 ErrMin= 1.25D-05
 ErrMax= 1.25D-05 EMaxC= 1.00D-01 BMatC= 1.28D-08 BMatP= 4.04D-08
 IDIUse=1 WtCom= 1.00D+00 WtEn= 0.00D+00
 Coeff-Com:  0.147D-03 0.948D-01 0.900D-01 0.410D+00 0.405D+00
 Coeff:      0.147D-03 0.948D-01 0.900D-01 0.410D+00 0.405D+00
 Gap=     0.206 Goal=   None    Shift=    0.000
 RMSDP=1.14D-07 MaxDP=1.07D-05 DE=-2.01D-08 OVMax= 5.58D-05

 Cycle   6  Pass 1  IDiag  1:
 RMSU=  3.33D-08    CP:  1.00D+00  9.55D-01  5.25D-01  7.32D-01  4.88D-01
 E= -150.273276243804     Delta-E=       -0.000000010824 Rises=F Damp=F
 DIIS: error= 1.42D-06 at cycle   6 NSaved=   6.
 NSaved= 6 IEnMin= 6 EnMin= -150.273276243804     IErMin= 6 ErrMin= 1.42D-06
 ErrMax= 1.42D-06 EMaxC= 1.00D-01 BMatC= 1.81D-10 BMatP= 1.28D-08
 IDIUse=1 WtCom= 1.00D+00 WtEn= 0.00D+00
 Coeff-Com: -0.690D-04 0.166D-01 0.143D-01 0.853D-01 0.149D+00 0.735D+00
 Coeff:     -0.690D-04 0.166D-01 0.143D-01 0.853D-01 0.149D+00 0.735D+00
 Gap=     0.206 Goal=   None    Shift=    0.000
 RMSDP=1.45D-08 MaxDP=1.65D-06 DE=-1.08D-08 OVMax= 5.25D-06

 Cycle   7  Pass 1  IDiag  1:
 RMSU=  6.79D-09    CP:  1.00D+00  9.55D-01  5.24D-01  7.24D-01  5.12D-01
                    CP:  8.55D-01
 E= -150.273276243956     Delta-E=       -0.000000000153 Rises=F Damp=F
 DIIS: error= 1.40D-07 at cycle   7 NSaved=   7.
 NSaved= 7 IEnMin= 7 EnMin= -150.273276243956     IErMin= 7 ErrMin= 1.40D-07
 ErrMax= 1.40D-07 EMaxC= 1.00D-01 BMatC= 2.71D-12 BMatP= 1.81D-10
 IDIUse=1 WtCom= 1.00D+00 WtEn= 0.00D+00
 Coeff-Com: -0.232D-04 0.399D-02 0.327D-02 0.214D-01 0.429D-01 0.242D+00
 Coeff-Com:  0.687D+00
 Coeff:     -0.232D-04 0.399D-02 0.327D-02 0.214D-01 0.429D-01 0.242D+00
 Coeff:      0.687D+00
 Gap=     0.206 Goal=   None    Shift=    0.000
 RMSDP=1.80D-09 MaxDP=8.85D-08 DE=-1.53D-10 OVMax= 4.76D-07

 SCF Done:  E(RPBE-PBE) =  -150.273276244     A.U. after    7 cycles
             Convg  =    0.1800D-08             -V/T =  2.0046
 KE= 1.495797838072D+02 PE=-5.028123895562D+02 EE= 1.236063068213D+02
 Leave Link  502 at Thu Feb 26 01:31:02 2015, MaxMem= 1073741824 cpu:     520.4
 (Enter /apps/gaussian/g09_c01/g09/l801.exe)
 Range of M.O.s used for correlation:     1   470
 NBasis=   470 NAE=    12 NBE=    12 NFC=     0 NFV=     0
 NROrb=    470 NOA=    12 NOB=    12 NVA=   458 NVB=   458

 **** Warning!!: The largest alpha MO coefficient is  0.98503953D+02

 Leave Link  801 at Thu Feb 26 01:31:02 2015, MaxMem= 1073741824 cpu:       0.2
 (Enter /apps/gaussian/g09_c01/g09/l1002.exe)
 Minotr:  Closed shell wavefunction.
          Direct CPHF calculation.
          Differentiating once with respect to electric field.
                with respect to dipole field.
          Electric field/nuclear overlap derivatives assumed to be zero.
          Using symmetry in CPHF.
          Requested convergence is 1.0D-08 RMS, and 1.0D-07 maximum.
          Secondary convergence is 1.0D-12 RMS, and 1.0D-12 maximum.
          NewPWx=F KeepS1=T KeepF1=T KeepIn=T MapXYZ=F SortEE=F KeepMc=T.
          MDV=    1073741756 using IRadAn=       1.
 Generate precomputed XC quadrature information.
          Solving linear equations simultaneously, MaxMat=       0.
          There are     3 degrees of freedom in the 1st order CPHF.  IDoFFX=0.
      3 vectors produced by pass  0 Test12= 1.83D-13 3.33D-08 XBig12= 6.13D+01 6.95D+00.
 AX will form     3 AO Fock derivatives at one time.
 FoFCou: FMM=F IPFlag=           0 FMFlag=      100000 FMFlg1=           0
         NFxFlg=           0 DoJE=T BraDBF=F KetDBF=F FulRan=T
         Omega=  0.000000  0.000000  1.000000  0.000000  0.000000 ICntrl=     500 IOpCl=  0
         NMat0=    3 NMatS0=    3 NMatT0=    0 NMatD0=    3 NMtDS0=    0 NMtDT0=    0
         I1Cent=           0 NGrid=           0.
 Symmetry not used in FoFCou.
      3 vectors produced by pass  1 Test12= 1.83D-13 3.33D-08 XBig12= 3.67D+01 2.01D+00.
      3 vectors produced by pass  2 Test12= 1.83D-13 3.33D-08 XBig12= 3.24D+00 4.56D-01.
      3 vectors produced by pass  3 Test12= 1.83D-13 3.33D-08 XBig12= 9.37D-02 6.84D-02.
      3 vectors produced by pass  4 Test12= 1.83D-13 3.33D-08 XBig12= 1.13D-02 2.80D-02.
      3 vectors produced by pass  5 Test12= 1.83D-13 3.33D-08 XBig12= 2.07D-03 9.95D-03.
[...]
 
     33  33          3                                                 1  1  1      11        1 11                                   
     55  44          1                                                 7  6  5      33        0 00          7  65 55                 
     88  76          3                                                 2  3  6      74        9 30          0  08 20                 
     10  63          0                                                 9  9  8      18        7 45          0  02 44                 
 
     XX  XX          X                                                 X  X  X      XX        X XX          X   X  X                 
     XX  X           X                                                              X         X                                      
     XX  X           X                                                                                                               
     X   X           X                                                                                                               
         X           X                                                                                                               
         X           X                                                                                                               
         X           X                                                                                                               
         X                                                                                                                           
         X                                                                                                                           
         X                                                                                                                           
         X                                                                                                                           
         X                                                                                                                           
         X                                                                                                                           
         X                                                                                                                           
         X                                                                                                                           
         X                                                                                                                           
         X                                                                                                                           
         X                                                                                                                           
         X                                                                                                                           
         X                                                                                                                           
 
 ***** Axes restored to original set *****
 -------------------------------------------------------------------
 Center     Atomic                   Forces (Hartrees/Bohr)
 Number     Number              X              Y              Z
 -------------------------------------------------------------------
      1        6           0.000000000   -0.000000455    0.000000000
      2        1           0.000000000    0.000000294    0.000000000
      3        7          -0.000000104    0.000000070    0.000000000
      4        1           0.000000012   -0.000000067    0.000000000
      5        1           0.000000038    0.000000077    0.000000000
      6        7           0.000000104    0.000000070    0.000000000
      7        1          -0.000000038    0.000000077    0.000000000
      8        1          -0.000000012   -0.000000067    0.000000000
 -------------------------------------------------------------------
 Cartesian Forces:  Max     0.000000455 RMS     0.000000120
 Force constants in Cartesian coordinates: 
                1             2             3             4             5 
      1  0.899240D+00
      2  0.000000D+00  0.787017D+00
      3  0.000000D+00  0.000000D+00  0.152912D+00
      4 -0.585044D-01  0.000000D+00  0.000000D+00  0.660611D-01
      5  0.000000D+00 -0.327910D+00  0.000000D+00  0.000000D+00  0.344172D+00
      6  0.000000D+00  0.000000D+00 -0.490161D-01  0.000000D+00  0.000000D+00
      7 -0.395597D+00  0.148458D+00  0.000000D+00 -0.105404D-02  0.227726D-02
      8  0.140221D+00 -0.234049D+00  0.000000D+00  0.337158D-01 -0.104690D-01
      9  0.000000D+00  0.000000D+00 -0.469293D-01  0.000000D+00  0.000000D+00
     10 -0.264605D-01 -0.164890D-01  0.000000D+00  0.110516D-02  0.888105D-04
     11  0.162024D-01  0.144523D-01  0.000000D+00  0.100907D-02  0.736836D-03
     12  0.000000D+00  0.000000D+00 -0.619894D-02  0.000000D+00  0.000000D+00
     13  0.168932D-02  0.349139D-01  0.000000D+00 -0.382947D-02  0.883378D-03
     14  0.704600D-02 -0.995699D-02  0.000000D+00  0.109669D-02  0.160138D-02
     15  0.000000D+00  0.000000D+00  0.118026D-02  0.000000D+00  0.000000D+00
     16 -0.395597D+00 -0.148458D+00  0.000000D+00 -0.105404D-02 -0.227727D-02
     17 -0.140221D+00 -0.234049D+00  0.000000D+00 -0.337158D-01 -0.104690D-01
     18  0.000000D+00  0.000000D+00 -0.469293D-01  0.000000D+00  0.000000D+00
     19  0.168932D-02 -0.349139D-01  0.000000D+00 -0.382947D-02 -0.883378D-03
     20 -0.704601D-02 -0.995699D-02  0.000000D+00 -0.109669D-02  0.160138D-02
     21  0.000000D+00  0.000000D+00  0.118026D-02  0.000000D+00  0.000000D+00
     22 -0.264605D-01  0.164890D-01  0.000000D+00  0.110516D-02 -0.888076D-04
     23 -0.162024D-01  0.144523D-01  0.000000D+00 -0.100907D-02  0.736834D-03
     24  0.000000D+00  0.000000D+00 -0.619894D-02  0.000000D+00  0.000000D+00
                6             7             8             9            10 
      6  0.287542D-01
      7  0.000000D+00  0.860852D+00
      8  0.000000D+00 -0.171180D-01  0.816099D+00
      9  0.657892D-02  0.000000D+00  0.000000D+00  0.498970D-01
     10  0.000000D+00 -0.318018D+00 -0.168135D+00  0.000000D+00  0.332858D+00
     11  0.000000D+00 -0.172473D+00 -0.182515D+00  0.000000D+00  0.174959D+00
     12 -0.382816D-02  0.000000D+00  0.000000D+00 -0.878448D-02  0.000000D+00
     13  0.000000D+00 -0.733573D-01  0.286169D-01  0.000000D+00  0.953055D-02
     14  0.000000D+00  0.274388D-01 -0.419193D+00  0.000000D+00  0.510736D-02
     15  0.738019D-02  0.000000D+00  0.000000D+00 -0.151653D-01  0.000000D+00
     16  0.000000D+00 -0.767532D-01 -0.126684D-01  0.000000D+00  0.174136D-02
     17  0.000000D+00  0.126684D-01  0.307240D-01  0.000000D+00  0.511912D-02
     18  0.657892D-02  0.000000D+00  0.000000D+00  0.123584D-01  0.000000D+00
     19  0.000000D+00  0.218538D-02  0.486595D-03  0.000000D+00 -0.101608D-03
     20  0.000000D+00  0.489823D-02  0.845394D-03  0.000000D+00 -0.175134D-03
     21  0.738019D-02  0.000000D+00  0.000000D+00 -0.353345D-02  0.000000D+00
     22  0.000000D+00  0.174136D-02 -0.511912D-02  0.000000D+00 -0.655434D-03
     23  0.000000D+00 -0.614965D-02 -0.144214D-02  0.000000D+00 -0.475223D-03
     24 -0.382816D-02  0.000000D+00  0.000000D+00  0.557821D-02  0.000000D+00
               11            12            13            14            15 
     11  0.177263D+00
     12  0.000000D+00  0.119490D-01
     13 -0.265727D-01  0.000000D+00  0.654136D-01
     14 -0.883087D-02  0.000000D+00 -0.365350D-01  0.435385D+00
     15  0.000000D+00 -0.132667D-02  0.000000D+00  0.000000D+00  0.119590D-01
     16  0.614965D-02  0.000000D+00  0.218538D-02 -0.489823D-02  0.000000D+00
     17 -0.144214D-02  0.000000D+00 -0.486595D-03  0.845394D-03  0.000000D+00
     18  0.000000D+00  0.557821D-02  0.000000D+00  0.000000D+00 -0.353345D-02
     19  0.250659D-03  0.000000D+00 -0.153048D-02  0.569213D-03  0.000000D+00
     20 -0.504291D-03  0.000000D+00 -0.569213D-03  0.653523D-03  0.000000D+00
     21  0.000000D+00 -0.560516D-03  0.000000D+00  0.000000D+00  0.665456D-04
     22  0.475223D-03  0.000000D+00 -0.101608D-03  0.175134D-03  0.000000D+00
     23  0.840804D-03  0.000000D+00 -0.250659D-03 -0.504291D-03  0.000000D+00
     24  0.000000D+00  0.317155D-02  0.000000D+00  0.000000D+00 -0.560516D-03
               16            17            18            19            20 
     16  0.860852D+00
     17  0.171180D-01  0.816099D+00
     18  0.000000D+00  0.000000D+00  0.498970D-01
     19 -0.733573D-01 -0.286169D-01  0.000000D+00  0.654136D-01
     20 -0.274388D-01 -0.419193D+00  0.000000D+00  0.365350D-01  0.435385D+00
     21  0.000000D+00  0.000000D+00 -0.151653D-01  0.000000D+00  0.000000D+00
     22 -0.318018D+00  0.168135D+00  0.000000D+00  0.953055D-02 -0.510736D-02
     23  0.172473D+00 -0.182515D+00  0.000000D+00  0.265727D-01 -0.883087D-02
     24  0.000000D+00  0.000000D+00 -0.878448D-02  0.000000D+00  0.000000D+00
               21            22            23            24 
     21  0.119590D-01
     22  0.000000D+00  0.332858D+00
     23  0.000000D+00 -0.174959D+00  0.177263D+00
     24 -0.132667D-02  0.000000D+00  0.000000D+00  0.119490D-01
 Red2BG is reusing G-inverse.
 Force constants in internal coordinates: 
                1             2             3             4             5 
      1  0.344172D+00
      2  0.661920D-02  0.585455D+00
      3  0.661920D-02  0.507013D-01  0.585455D+00
      4  0.473664D-03  0.551068D-02 -0.549236D-02  0.446531D+00
      5 -0.150297D-02  0.864397D-02 -0.320536D-02 -0.164629D-03  0.438950D+00
      6 -0.150297D-02 -0.320536D-02  0.864397D-02  0.413130D-03  0.778782D-03
      7  0.473660D-03 -0.549236D-02  0.551068D-02  0.276604D-03  0.413131D-03
      8  0.371363D-02  0.801914D-02 -0.328197D-01 -0.248862D-02  0.385104D-02
      9  0.371363D-02 -0.328197D-01  0.801914D-02  0.553272D-03  0.795264D-03
     10 -0.742727D-02  0.248006D-01  0.248006D-01  0.193534D-02 -0.464630D-02
     11 -0.139939D-02  0.167315D-01  0.371857D-02  0.215330D-02 -0.826436D-02
     12  0.170194D-02  0.745279D-02 -0.143882D-02 -0.722545D-02  0.245083D-02
     13 -0.302544D-03 -0.241843D-01 -0.227974D-02  0.507215D-02  0.581353D-02
     14  0.170193D-02 -0.143883D-02  0.745279D-02 -0.191950D-03  0.102033D-02
     15 -0.139939D-02  0.371857D-02  0.167315D-01  0.204221D-03 -0.797903D-03
     16 -0.302542D-03 -0.227974D-02 -0.241843D-01 -0.122714D-04 -0.222425D-03
     17  0.000000D+00  0.000000D+00  0.000000D+00  0.000000D+00  0.000000D+00
     18  0.000000D+00  0.000000D+00  0.000000D+00  0.000000D+00  0.000000D+00
     19  0.000000D+00  0.000000D+00  0.000000D+00  0.000000D+00  0.000000D+00
     20  0.000000D+00  0.000000D+00  0.000000D+00  0.000000D+00  0.000000D+00
     21  0.000000D+00  0.000000D+00  0.000000D+00  0.000000D+00  0.000000D+00
     22  0.000000D+00  0.000000D+00  0.000000D+00  0.000000D+00  0.000000D+00
     23  0.000000D+00  0.000000D+00  0.000000D+00  0.000000D+00  0.000000D+00
     24  0.000000D+00  0.000000D+00  0.000000D+00  0.000000D+00  0.000000D+00
                6             7             8             9            10 
      6  0.438950D+00
      7 -0.164629D-03  0.446531D+00
      8  0.795264D-03  0.553273D-03  0.106714D+00
      9  0.385104D-02 -0.248861D-02 -0.338042D-01  0.106714D+00
     10 -0.464630D-02  0.193534D-02 -0.729099D-01 -0.729099D-01  0.145820D+00
     11 -0.797903D-03  0.204222D-03 -0.791575D-02 -0.368290D-02  0.115986D-01
     12  0.102033D-02 -0.191950D-03  0.905993D-02 -0.392901D-03 -0.866703D-02
     13 -0.222425D-03 -0.122719D-04 -0.114419D-02  0.407580D-02 -0.293161D-02
     14  0.245083D-02 -0.722545D-02 -0.392901D-03  0.905993D-02 -0.866703D-02
     15 -0.826436D-02  0.215330D-02 -0.368290D-02 -0.791575D-02  0.115986D-01
     16  0.581353D-02  0.507215D-02  0.407580D-02 -0.114419D-02 -0.293161D-02
     17  0.000000D+00  0.000000D+00  0.000000D+00  0.000000D+00  0.000000D+00
     18  0.000000D+00  0.000000D+00  0.000000D+00  0.000000D+00  0.000000D+00
     19  0.000000D+00  0.000000D+00  0.000000D+00  0.000000D+00  0.000000D+00
     20  0.000000D+00  0.000000D+00  0.000000D+00  0.000000D+00  0.000000D+00
     21  0.000000D+00  0.000000D+00  0.000000D+00  0.000000D+00  0.000000D+00
     22  0.000000D+00  0.000000D+00  0.000000D+00  0.000000D+00  0.000000D+00
     23  0.000000D+00  0.000000D+00  0.000000D+00  0.000000D+00  0.000000D+00
     24  0.000000D+00  0.000000D+00  0.000000D+00  0.000000D+00  0.000000D+00
               11            12            13            14            15 
     11  0.829783D-01
     12 -0.446789D-01  0.811482D-01
     13 -0.382994D-01 -0.364693D-01  0.747686D-01
     14 -0.154246D-02  0.232145D-02 -0.778989D-03  0.811482D-01
     15  0.208520D-02 -0.154246D-02 -0.542744D-03 -0.446789D-01  0.829783D-01
     16 -0.542743D-03 -0.778989D-03  0.132173D-02 -0.364693D-01 -0.382994D-01
     17  0.000000D+00  0.000000D+00  0.000000D+00  0.000000D+00  0.000000D+00
     18  0.000000D+00  0.000000D+00  0.000000D+00  0.000000D+00  0.000000D+00
     19  0.000000D+00  0.000000D+00  0.000000D+00  0.000000D+00  0.000000D+00
     20  0.000000D+00  0.000000D+00  0.000000D+00  0.000000D+00  0.000000D+00
     21  0.000000D+00  0.000000D+00  0.000000D+00  0.000000D+00  0.000000D+00
     22  0.000000D+00  0.000000D+00  0.000000D+00  0.000000D+00  0.000000D+00
     23  0.000000D+00  0.000000D+00  0.000000D+00  0.000000D+00  0.000000D+00
     24  0.000000D+00  0.000000D+00  0.000000D+00  0.000000D+00  0.000000D+00
               16            17            18            19            20 
     16  0.747686D-01
     17  0.000000D+00  0.977933D-02
     18  0.000000D+00  0.432279D-02  0.131181D-01
     19  0.000000D+00  0.382193D-02 -0.549649D-02  0.156786D-01
     20  0.000000D+00 -0.163461D-02  0.329881D-02  0.636020D-02  0.112936D-01
     21  0.000000D+00 -0.381172D-02 -0.540885D-02  0.600756D-02  0.441043D-02
     22  0.000000D+00 -0.369998D-02 -0.381172D-02  0.225742D-02  0.214568D-02
     23  0.000000D+00  0.214568D-02  0.441043D-02 -0.584913D-02 -0.358438D-02
     24  0.000000D+00  0.225742D-02  0.600756D-02 -0.959926D-02 -0.584913D-02
               21            22            23            24 
     21  0.131181D-01
     22  0.432279D-02  0.977933D-02
     23  0.329881D-02 -0.163461D-02  0.112936D-01
     24 -0.549649D-02  0.382193D-02  0.636020D-02  0.156786D-01
 Leave Link  716 at Thu Feb 26 03:12:03 2015, MaxMem= 1073741824 cpu:       0.2
 (Enter /apps/gaussian/g09_c01/g09/l9999.exe)
 1\1\GINC-CX1-49-4-4\Freq\RPBEPBE\Aug-CC-pVQZ\C1H5N2(1+)\JMF02\26-Feb-2
 015\0\\#p opt(VeryTight,CalcAll,Raman) Integral(Grid=UltraFine) PBEPBE
 /AUG-cc-pVQZ\\Autjob by noodles.sh | Great noodly basis sets\\1,1\C,0.
 ,0.4273156093,0.\H,0.,1.5187726251,0.\N,1.1681409261,-0.1762506083,0.\
 H,2.0221720766,0.3738428513,0.\H,1.2719234807,-1.1888733603,0.\N,-1.16
 81409261,-0.1762506083,0.\H,-1.2719234807,-1.1888733603,0.\H,-2.022172
 0766,0.3738428513,0.\\Version=EM64L-G09RevC.01\State=1-A1\HF=-150.2732
 762\RMSD=4.712e-09\RMSF=1.205e-07\ZeroPoint=0.0704658\Thermal=0.074289
 1\Dipole=0.,-0.1104087,0.\DipoleDeriv=1.7732532,0.,0.,0.,0.3460059,0.,
 0.,0.,0.2468165,0.0854962,0.,0.,0.,0.1394669,0.,0.,0.,0.1576353,-1.003
 7334,0.0391157,0.,0.4235735,-0.2364002,0.,0.,0.,-0.3411105,0.3807572,0
 .0527879,0.,0.1039792,0.2107744,0.,0.,0.,0.3183662,0.1936015,-0.057840
 8,0.,-0.1121699,0.2828894,0.,0.,0.,0.3205184,-1.0037334,-0.0391157,0.,
 -0.4235735,-0.2364002,0.,0.,0.,-0.3411105,0.1936015,0.0578408,0.,0.112
 1699,0.2828894,0.,0.,0.,0.3205184,0.3807572,-0.0527879,0.,-0.1039792,0
 .2107744,0.,0.,0.,0.3183662\Polar=38.3213676,0.,25.7403292,0.,0.,18.68
 88821\PolarDeriv=-0.0000004,1.3993137,0.,0.,0.,0.0000004,5.5919633,-0.
 0000001,-3.8904823,0.,0.,1.4372257,0.,0.,0.,0.,1.4049539,0.,0.,0.92730
 67,0.,0.,0.,0.,1.0244981,0.,7.5459876,0.,0.,1.2857086,0.,0.,0.,0.,0.90
 07861,0.,2.9966,-1.2976618,-0.4894383,0.,0.,1.6648607,-3.5832234,-0.27
 27725,3.2181883,0.,0.,-0.8355081,0.,0.,0.,3.6585053,-0.8363801,0.,6.93
 58331,1.216207,1.7264707,0.,0.,0.9450326,2.6562623,1.8553411,1.3023722
 ,0.,0.,0.5664443,0.,0.,0.,0.4036547,0.2289021,0.,2.0775132,-1.0818554,
 0.5175527,0.,0.,0.2110932,-2.3812697,2.2551319,-6.3483131,0.,0.,-1.092
 4032,0.,0.,0.,0.0820691,-0.545392,0.,-2.9966,-1.2976618,0.4894383,0.,0
 .,-1.6648607,-3.5832234,0.2727725,3.2181883,0.,0.,-0.8355081,0.,0.,0.,
 -3.6585053,-0.8363801,0.,-2.0775132,-1.0818554,-0.5175527,0.,0.,-0.211
 0932,-2.3812697,-2.2551319,-6.3483131,0.,0.,-1.0924032,0.,0.,0.,-0.082
 0691,-0.545392,0.,-6.9358331,1.216207,-1.7264707,0.,0.,-0.9450326,2.65
 62623,-1.8553411,1.3023722,0.,0.,0.5664443,0.,0.,0.,-0.4036547,0.22890
 21,0.\HyperPolar=0.,22.650251,0.,-8.2711367,0.,0.,0.,0.,-0.3226336,0.\
 PG=C02V [C2(C1H1),SGV(H4N2)]\NImag=0\\0.89924028,0.,0.78701710,0.,0.,0
 .15291213,-0.05850436,0.,0.,0.06606105,0.,-0.32791000,0.,0.,0.34417160
 ,0.,0.,-0.04901614,0.,0.,0.02875423,-0.39559682,0.14845810,0.,-0.00105
 404,0.00227726,0.,0.86085220,0.14022099,-0.23404884,0.,0.03371582,-0.0
 1046902,0.,-0.01711797,0.81609910,0.,0.,-0.04692932,0.,0.,0.00657892,0
 .,0.,0.04989702,-0.02646046,-0.01648899,0.,0.00110516,0.00008881,0.,-0
 .31801753,-0.16813484,0.,0.33285796,0.01620239,0.01445228,0.,0.0010090
 7,0.00073684,0.,-0.17247316,-0.18251532,0.,0.17495890,0.17726270,0.,0.
 ,-0.00619894,0.,0.,-0.00382816,0.,0.,-0.00878448,0.,0.,0.01194901,0.00
 168932,0.03491390,0.,-0.00382947,0.00088338,0.,-0.07335733,0.02861691,
 0.,0.00953055,-0.02657274,0.,0.06541362,0.00704600,-0.00995699,0.,0.00
 109669,0.00160138,0.,0.02743881,-0.41919315,0.,0.00510736,-0.00883087,
 0.,-0.03653498,0.43538501,0.,0.,0.00118026,0.,0.,0.00738019,0.,0.,-0.0
 1516532,0.,0.,-0.00132667,0.,0.,0.01195895,-0.39559682,-0.14845809,0.,
 -0.00105404,-0.00227727,0.,-0.07675321,-0.01266839,0.,0.00174136,0.006
 14965,0.,0.00218538,-0.00489823,0.,0.86085220,-0.14022099,-0.23404885,
 0.,-0.03371582,-0.01046902,0.,0.01266839,0.03072398,0.,0.00511912,-0.0
 0144214,0.,-0.00048660,0.00084539,0.,0.01711797,0.81609910,0.,0.,-0.04
 692932,0.,0.,0.00657892,0.,0.,0.01235842,0.,0.,0.00557821,0.,0.,-0.003
 53345,0.,0.,0.04989702,0.00168932,-0.03491390,0.,-0.00382947,-0.000883
 38,0.,0.00218538,0.00048660,0.,-0.00010161,0.00025066,0.,-0.00153048,0
 .00056921,0.,-0.07335733,-0.02861691,0.,0.06541362,-0.00704601,-0.0099
 5699,0.,-0.00109669,0.00160138,0.,0.00489823,0.00084539,0.,-0.00017513
 ,-0.00050429,0.,-0.00056921,0.00065352,0.,-0.02743881,-0.41919315,0.,0
 .03653498,0.43538501,0.,0.,0.00118026,0.,0.,0.00738019,0.,0.,-0.003533
 45,0.,0.,-0.00056052,0.,0.,0.00006655,0.,0.,-0.01516532,0.,0.,0.011958
 95,-0.02646046,0.01648899,0.,0.00110516,-0.00008881,0.,0.00174136,-0.0
 0511912,0.,-0.00065543,0.00047522,0.,-0.00010161,0.00017513,0.,-0.3180
 1753,0.16813484,0.,0.00953055,-0.00510736,0.,0.33285796,-0.01620239,0.
 01445229,0.,-0.00100907,0.00073683,0.,-0.00614965,-0.00144214,0.,-0.00
 047522,0.00084080,0.,-0.00025066,-0.00050429,0.,0.17247316,-0.18251532
 ,0.,0.02657274,-0.00883087,0.,-0.17495890,0.17726270,0.,0.,-0.00619894
 ,0.,0.,-0.00382816,0.,0.,0.00557821,0.,0.,0.00317155,0.,0.,-0.00056052
 ,0.,0.,-0.00878448,0.,0.,-0.00132667,0.,0.,0.01194901\\0.,0.00000045,0
 .,0.,-0.00000029,0.,0.00000010,-0.00000007,0.,-0.00000001,0.00000007,0
 .,-0.00000004,-0.00000008,0.,-0.00000010,-0.00000007,0.,0.00000004,-0.
 00000008,0.,0.00000001,0.00000007,0.\\\@


 CONTRAIWISE...CONTINUED TWEEDLEDEE, IF IT WAS SO, IT MIGHT BE,
 AND IF IT WERE SO, IT WOULD BE.....
 BUT AS IT ISN'T, IT AIN'T....
 THAT'S LOGIC.....
 ALICE THROUGH THE LOOKING GLASS
 Job cpu time:  0 days 20 hours 28 minutes  8.4 seconds.
 File lengths (MBytes):  RWF=    178 Int=      0 D2E=      0 Chk=     15 Scr=      1
 Normal termination of Gaussian 09 at Thu Feb 26 03:12:03 2015.
