 Entering Gaussian System, Link 0=g03
 Input=MA_b3lyp_AUG-cc-pVDZ.com
 Output=MA_b3lyp_AUG-cc-pVDZ.log
 Initial command:
 /apps/gaussian/g09_c01/g09/l1.exe /tmp/pbs.8910292.cx1b/Gau-21044.inp -scrdir=/tmp/pbs.8910292.cx1b/
 Entering Link 1 = /apps/gaussian/g09_c01/g09/l1.exe PID=     21052.
  
 Copyright (c) 1988,1990,1992,1993,1995,1998,2003,2009,2011,
            Gaussian, Inc.  All Rights Reserved.
  
 This is part of the Gaussian(R) 09 program.  It is based on
 the Gaussian(R) 03 system (copyright 2003, Gaussian, Inc.),
 the Gaussian(R) 98 system (copyright 1998, Gaussian, Inc.),
 the Gaussian(R) 94 system (copyright 1995, Gaussian, Inc.),
 the Gaussian 92(TM) system (copyright 1992, Gaussian, Inc.),
 the Gaussian 90(TM) system (copyright 1990, Gaussian, Inc.),
 the Gaussian 88(TM) system (copyright 1988, Gaussian, Inc.),
 the Gaussian 86(TM) system (copyright 1986, Carnegie Mellon
 University), and the Gaussian 82(TM) system (copyright 1983,
 Carnegie Mellon University). Gaussian is a federally registered
 trademark of Gaussian, Inc.
  
 This software contains proprietary and confidential information,
 including trade secrets, belonging to Gaussian, Inc.
  
 This software is provided under written license and may be
 used, copied, transmitted, or stored only in accord with that
 written license.
  
 The following legend is applicable only to US Government
 contracts under FAR:
  
                    RESTRICTED RIGHTS LEGEND
  
 Use, reproduction and disclosure by the US Government is
 subject to restrictions as set forth in subparagraphs (a)
 and (c) of the Commercial Computer Software - Restricted
 Rights clause in FAR 52.227-19.
  
 Gaussian, Inc.
 340 Quinnipiac St., Bldg. 40, Wallingford CT 06492
  
  
 ---------------------------------------------------------------
 Warning -- This program may not be used in any manner that
 competes with the business of Gaussian, Inc. or will provide
 assistance to any competitor of Gaussian, Inc.  The licensee
 of this program is prohibited from giving any competitor of
 Gaussian, Inc. access to this program.  By using this program,
 the user acknowledges that Gaussian, Inc. is engaged in the
 business of creating and licensing software in the field of
 computational chemistry and represents and warrants to the
 licensee that it is not a competitor of Gaussian, Inc. and that
 it will not use this program in any manner prohibited above.
 ---------------------------------------------------------------
  

 Cite this work as:
 Gaussian 09, Revision C.01,
 M. J. Frisch, G. W. Trucks, H. B. Schlegel, G. E. Scuseria, 
 M. A. Robb, J. R. Cheeseman, G. Scalmani, V. Barone, B. Mennucci, 
 G. A. Petersson, H. Nakatsuji, M. Caricato, X. Li, H. P. Hratchian, 
 A. F. Izmaylov, J. Bloino, G. Zheng, J. L. Sonnenberg, M. Hada, 
 M. Ehara, K. Toyota, R. Fukuda, J. Hasegawa, M. Ishida, T. Nakajima, 
 Y. Honda, O. Kitao, H. Nakai, T. Vreven, J. A. Montgomery, Jr., 
 J. E. Peralta, F. Ogliaro, M. Bearpark, J. J. Heyd, E. Brothers, 
 K. N. Kudin, V. N. Staroverov, T. Keith, R. Kobayashi, J. Normand, 
 K. Raghavachari, A. Rendell, J. C. Burant, S. S. Iyengar, J. Tomasi, 
 M. Cossi, N. Rega, J. M. Millam, M. Klene, J. E. Knox, J. B. Cross, 
 V. Bakken, C. Adamo, J. Jaramillo, R. Gomperts, R. E. Stratmann, 
 O. Yazyev, A. J. Austin, R. Cammi, C. Pomelli, J. W. Ochterski, 
 R. L. Martin, K. Morokuma, V. G. Zakrzewski, G. A. Voth, 
 P. Salvador, J. J. Dannenberg, S. Dapprich, A. D. Daniels, 
 O. Farkas, J. B. Foresman, J. V. Ortiz, J. Cioslowski, 
 and D. J. Fox, Gaussian, Inc., Wallingford CT, 2010.
 
 ******************************************
 Gaussian 09:  EM64L-G09RevC.01 23-Sep-2011
                26-Feb-2015 
 ******************************************
 %Chk=MA_b3lyp_AUG-cc-pVDZ.chk
 %Mem=8Gb
 %nproc=8
 Will use up to    8 processors via shared memory.
 ----------------------------------------------------------------------
 #p opt(VeryTight,CalcAll,Raman) Integral(Grid=UltraFine) b3lyp/AUG-cc-
 pVDZ
 ----------------------------------------------------------------------
 1/7=1,10=4,14=-1,18=20,19=15,26=3,38=1/1,3;
 2/9=110,12=2,17=6,18=5,40=1/2;
 3/5=16,7=10,11=2,16=1,25=1,30=1,71=2,74=-5,75=-5/1,2,3;
 4//1;
 5/5=2,38=5/2;
 8/6=4,10=90,11=11/1;
 10/13=10,15=4/2;
 11/6=3,8=1,9=11,15=111,16=1/1,2,10;
 10/6=1/2;
 6/7=2,8=2,9=2,10=2,18=1,28=1/1;
 7/10=1,25=1/1,2,3,16;
 1/7=1,10=4,14=-1,18=20,19=15/3(3);
 2/9=110/2;
 7/8=1,9=1,25=1,44=-1/16;
 99//99;
 2/9=110/2;
 3/5=16,7=10,11=2,16=1,25=1,30=1,71=2,74=-5,75=-5/1,2,3;
 4/5=5,16=3/1;
 5/5=2,38=5/2;
 8/6=4,10=90,11=11/1;
 10/13=10,15=4/2;
 11/6=3,8=1,9=11,15=111,16=1/1,2,10;
 10/6=1/2;
 7/10=1,25=1/1,2,3,16;
 1/7=1,10=4,14=-1,18=20,19=15/3(-9);
 2/9=110/2;
 6/7=2,8=2,9=2,10=2,18=1,19=2,28=1/1;
 7/8=1,9=1,25=1,44=-1/16;
 99//99;
 Leave Link    1 at Thu Feb 26 00:40:27 2015, MaxMem= 1073741824 cpu:       0.3
 (Enter /apps/gaussian/g09_c01/g09/l101.exe)
 ----------------------------------------------
 Autjob by noodles.sh | Great noodly basis sets
 ----------------------------------------------
 Charge =  1 Multiplicity = 1
 Symbolic Z-Matrix:
 C                     0.        0.       -0.80446 
 H                    -0.09587  -1.03096  -1.1445 
 H                    -0.8449    0.59851  -1.1445 
 H                     0.94078   0.43245  -1.1445 
 N                     0.        0.        0.71256 
 H                     0.08865   0.95193   1.09076 
 H                    -0.86872  -0.39919   1.09076 
 H                     0.78007  -0.55274   1.09076 
 
 NAtoms=      8 NQM=        0 NQMF=       0 NMMI=      8 NMMIF=      0
                NMic=       0 NMicF=      0.
                    Isotopes and Nuclear Properties:
 (Nuclear quadrupole moments (NQMom) in fm**2, nuclear magnetic moments (NMagM)
  in nuclear magnetons)

  Atom         1           2           3           4           5           6           7           8
 IAtWgt=          12           1           1           1          14           1           1           1
 AtmWgt=  12.0000000   1.0078250   1.0078250   1.0078250  14.0030740   1.0078250   1.0078250   1.0078250
 NucSpn=           0           1           1           1           2           1           1           1
 AtZEff=   0.0000000   0.0000000   0.0000000   0.0000000   0.0000000   0.0000000   0.0000000   0.0000000
 NQMom=    0.0000000   0.0000000   0.0000000   0.0000000   2.0440000   0.0000000   0.0000000   0.0000000
 NMagM=    0.0000000   2.7928460   2.7928460   2.7928460   0.4037610   2.7928460   2.7928460   2.7928460
 Leave Link  101 at Thu Feb 26 00:40:27 2015, MaxMem= 1073741824 cpu:       0.9
 (Enter /apps/gaussian/g09_c01/g09/l103.exe)

 GradGradGradGradGradGradGradGradGradGradGradGradGradGradGradGradGradGrad
 Berny optimization.
 Initialization pass.
                           ----------------------------
                           !    Initial Parameters    !
                           ! (Angstroms and Degrees)  !
 --------------------------                            --------------------------
 ! Name  Definition              Value          Derivative Info.                !
 --------------------------------------------------------------------------------
 ! R1    R(1,2)                  1.0898         calculate D2E/DX2 analytically  !
 ! R2    R(1,3)                  1.0898         calculate D2E/DX2 analytically  !
 ! R3    R(1,4)                  1.0898         calculate D2E/DX2 analytically  !
 ! R4    R(1,5)                  1.517          calculate D2E/DX2 analytically  !
 ! R5    R(5,6)                  1.0281         calculate D2E/DX2 analytically  !
 ! R6    R(5,7)                  1.0281         calculate D2E/DX2 analytically  !
 ! R7    R(5,8)                  1.0281         calculate D2E/DX2 analytically  !
 ! A1    A(2,1,3)              110.7303         calculate D2E/DX2 analytically  !
 ! A2    A(2,1,4)              110.7304         calculate D2E/DX2 analytically  !
 ! A3    A(2,1,5)              108.1807         calculate D2E/DX2 analytically  !
 ! A4    A(3,1,4)              110.7303         calculate D2E/DX2 analytically  !
 ! A5    A(3,1,5)              108.1807         calculate D2E/DX2 analytically  !
 ! A6    A(4,1,5)              108.1807         calculate D2E/DX2 analytically  !
 ! A7    A(1,5,6)              111.5829         calculate D2E/DX2 analytically  !
 ! A8    A(1,5,7)              111.583          calculate D2E/DX2 analytically  !
 ! A9    A(1,5,8)              111.583          calculate D2E/DX2 analytically  !
 ! A10   A(6,5,7)              107.2794         calculate D2E/DX2 analytically  !
 ! A11   A(6,5,8)              107.2794         calculate D2E/DX2 analytically  !
 ! A12   A(7,5,8)              107.2794         calculate D2E/DX2 analytically  !
 ! D1    D(2,1,5,6)            179.9926         calculate D2E/DX2 analytically  !
 ! D2    D(2,1,5,7)            -60.0075         calculate D2E/DX2 analytically  !
 ! D3    D(2,1,5,8)             59.9926         calculate D2E/DX2 analytically  !
 ! D4    D(3,1,5,6)            -60.0075         calculate D2E/DX2 analytically  !
 ! D5    D(3,1,5,7)             59.9925         calculate D2E/DX2 analytically  !
 ! D6    D(3,1,5,8)            179.9926         calculate D2E/DX2 analytically  !
 ! D7    D(4,1,5,6)             59.9925         calculate D2E/DX2 analytically  !
 ! D8    D(4,1,5,7)            179.9925         calculate D2E/DX2 analytically  !
 ! D9    D(4,1,5,8)            -60.0075         calculate D2E/DX2 analytically  !
 --------------------------------------------------------------------------------
 Trust Radius=3.00D-01 FncErr=1.00D-07 GrdErr=1.00D-06
 Number of steps in this run=     38 maximum allowed number of steps=    100.
 GradGradGradGradGradGradGradGradGradGradGradGradGradGradGradGradGradGrad

 Leave Link  103 at Thu Feb 26 00:40:27 2015, MaxMem= 1073741824 cpu:       0.0
 (Enter /apps/gaussian/g09_c01/g09/l202.exe)
                          Input orientation:                          
 ---------------------------------------------------------------------
 Center     Atomic      Atomic             Coordinates (Angstroms)
 Number     Number       Type             X           Y           Z
 ---------------------------------------------------------------------
      1          6           0        0.000000    0.000000   -0.804455
      2          1           0       -0.095874   -1.030964   -1.144495
      3          1           0       -0.844904    0.598511   -1.144495
      4          1           0        0.940777    0.432453   -1.144495
      5          7           0        0.000000    0.000000    0.712562
      6          1           0        0.088649    0.951929    1.090759
      7          1           0       -0.868719   -0.399192    1.090759
      8          1           0        0.780070   -0.552736    1.090759
 ---------------------------------------------------------------------
                    Distance matrix (angstroms):
                    1          2          3          4          5
     1  C    0.000000
     2  H    1.089819   0.000000
     3  H    1.089819   1.793386   0.000000
     4  H    1.089818   1.793386   1.793386   0.000000
     5  N    1.517017   2.126203   2.126203   2.126203   0.000000
     6  H    2.122702   2.993706   2.448017   2.447925   1.028134
     7  H    2.122702   2.448017   2.447925   2.993705   1.028134
     8  H    2.122702   2.447926   2.993705   2.448016   1.028134
                    6          7          8
     6  H    0.000000
     7  H    1.655923   0.000000
     8  H    1.655923   1.655923   0.000000
 Stoichiometry    CH6N(1+)
 Framework group  C3[C3(CN),X(H6)]
 Deg. of freedom     6
 Full point group                 C3      NOp   3
 Largest Abelian subgroup         C1      NOp   1
 Largest concise Abelian subgroup C1      NOp   1
                         Standard orientation:                         
 ---------------------------------------------------------------------
 Center     Atomic      Atomic             Coordinates (Angstroms)
 Number     Number       Type             X           Y           Z
 ---------------------------------------------------------------------
      1          6           0        0.000000    0.000000   -0.804455
      2          1           0        1.030964   -0.095874   -1.144495
      3          1           0       -0.598511   -0.844904   -1.144495
      4          1           0       -0.432453    0.940778   -1.144495
      5          7           0        0.000000    0.000000    0.712562
      6          1           0       -0.951929    0.088649    1.090759
      7          1           0        0.399192   -0.868719    1.090759
      8          1           0        0.552737    0.780070    1.090759
 ---------------------------------------------------------------------
 Rotational constants (GHZ):     84.1605103     19.8694623     19.8694623
 Leave Link  202 at Thu Feb 26 00:40:28 2015, MaxMem= 1073741824 cpu:       0.0
 (Enter /apps/gaussian/g09_c01/g09/l301.exe)
 Standard basis: Aug-CC-pVDZ (5D, 7F)
 Ernie: Thresh=  0.10000D-02 Tol=  0.10000D-05 Strict=F.
 Ernie:  4 primitive shells out of 92 were deleted.
 There are   100 symmetry adapted basis functions of A   symmetry.
 Integral buffers will be    131072 words long.
 Raffenetti 2 integral format.
 Two-electron integral symmetry is turned on.
   100 basis functions,   152 primitive gaussians,   104 cartesian basis functions
     9 alpha electrons        9 beta electrons
       nuclear repulsion energy        47.5846100594 Hartrees.
 IExCor=  402 DFT=T Ex+Corr=B3LYP ExCW=0 ScaHFX=  0.200000
 ScaDFX=  0.800000  0.720000  1.000000  0.810000 ScalE2=  1.000000  1.000000
 IRadAn=      5 IRanWt=     -1 IRanGd=            0 ICorTp=0
 NAtoms=    8 NActive=    8 NUniq=    4 SFac= 4.00D+00 NAtFMM=   60 NAOKFM=F Big=F
 Leave Link  301 at Thu Feb 26 00:40:28 2015, MaxMem= 1073741824 cpu:       0.3
 (Enter /apps/gaussian/g09_c01/g09/l302.exe)
 NPDir=0 NMtPBC=     1 NCelOv=     1 NCel=       1 NClECP=     1 NCelD=      1
         NCelK=      1 NCelE2=     1 NClLst=     1 CellRange=     0.0.
 One-electron integrals computed using PRISM.
 NBasis=   100 RedAO= T  NBF=   100
 NBsUse=   100 1.00D-06 NBFU=   100
 Precomputing XC quadrature grid using
 IXCGrd= 2 IRadAn=           5 IRanWt=          -1 IRanGd=           0 AccXCQ= 0.00D+00.
 NRdTot=     685 NPtTot=      183098 NUsed=      188010 NTot=      188042
 NSgBfM=   104   104   104   104   104 NAtAll=     8     8.
 Leave Link  302 at Thu Feb 26 00:40:28 2015, MaxMem= 1073741824 cpu:       1.1
 (Enter /apps/gaussian/g09_c01/g09/l303.exe)
 DipDrv:  MaxL=1.
 Leave Link  303 at Thu Feb 26 00:40:28 2015, MaxMem= 1073741824 cpu:       0.2
 (Enter /apps/gaussian/g09_c01/g09/l401.exe)
 Harris functional with IExCor=  402 diagonalized for initial guess.
 ExpMin= 2.97D-02 ExpMax= 9.05D+03 ExpMxC= 3.09D+02 IAcc=3 IRadAn=         5 AccDes= 0.00D+00
 HarFok:  IExCor=  402 AccDes= 0.00D+00 IRadAn=         5 IDoV= 1
 ScaDFX=  1.000000  1.000000  1.000000  1.000000
 FoFCou: FMM=F IPFlag=           0 FMFlag=      100000 FMFlg1=           0
         NFxFlg=           0 DoJE=T BraDBF=F KetDBF=T FulRan=T
         Omega=  0.000000  0.000000  1.000000  0.000000  0.000000 ICntrl=     500 IOpCl=  0
         NMat0=    1 NMatS0=    1 NMatT0=    0 NMatD0=    1 NMtDS0=    0 NMtDT0=    0
         I1Cent=           4 NGrid=           0.
 Petite list used in FoFCou.
 DSYEVD returned Info=         201 IAlg= 4 N=   100 NDim=   100 NE2=    10737194 trying DSYEV.
 Harris En= -96.2889079938751    
 Initial guess orbital symmetries:
       Occupied  (A) (A) (A) (A) (E) (E) (A) (E) (E)
       Virtual   (A) (A) (E) (E) (A) (E) (E) (A) (E) (E) (A) (E)
                 (E) (A) (E) (E) (E) (E) (A) (A) (E) (E) (E) (E)
                 (A) (A) (A) (E) (E) (A) (E) (E) (E) (E) (A) (A)
                 (E) (E) (A) (E) (E) (A) (E) (E) (E) (E) (A) (E)
                 (E) (A) (E) (E) (A) (A) (E) (E) (E) (E) (E) (E)
                 (A) (A) (A) (E) (E) (A) (A) (E) (E) (E) (E) (A)
                 (E) (E) (E) (E) (A) (E) (E) (E) (E) (A) (E) (E)
                 (A) (A) (E) (E) (A) (E) (E)
 The electronic state of the initial guess is 1-A.
 Leave Link  401 at Thu Feb 26 00:40:28 2015, MaxMem= 1073741824 cpu:       2.0
 (Enter /apps/gaussian/g09_c01/g09/l502.exe)
 Closed shell SCF:
 Requested convergence on RMS density matrix=1.00D-08 within 128 cycles.
 Requested convergence on MAX density matrix=1.00D-06.
 Requested convergence on             energy=1.00D-06.
 No special actions if energy rises.
 Using DIIS extrapolation, IDIIS=  1040.
 Integral symmetry usage will be decided dynamically.
       187925 words used for storage of precomputed grid.
 Keep R1 ints in memory in canonical form, NReq=16077209.
 IEnd=      240235 IEndB=      240235 NGot=  1073741824 MDV=  1058620592
 LenX=  1058620592 LenY=  1058609335
 Symmetry not used in FoFDir.
 MinBra= 0 MaxBra= 2 Meth= 1.
 IRaf=       0 NMat=   1 IRICut=       1 DoRegI=T DoRafI=F ISym2E= 0 JSym2E=0.

 Cycle   1  Pass 1  IDiag  1:
 E= -96.1904661563076    
 DIIS: error= 1.39D-02 at cycle   1 NSaved=   1.
 NSaved= 1 IEnMin= 1 EnMin= -96.1904661563076     IErMin= 1 ErrMin= 1.39D-02
 ErrMax= 1.39D-02 EMaxC= 1.00D-01 BMatC= 3.58D-02 BMatP= 3.58D-02
 IDIUse=3 WtCom= 8.61D-01 WtEn= 1.39D-01
 Coeff-Com:  0.100D+01
 Coeff-En:   0.100D+01
 Coeff:      0.100D+01
 Gap=     0.366 Goal=   None    Shift=    0.000
 DSYEVD returned Info=         201 IAlg= 4 N=   100 NDim=   100 NE2=    10586092 trying DSYEV.
 GapD=    0.366 DampG=1.000 DampE=0.500 DampFc=0.5000 IDamp=-1.
 Damping current iteration by 5.00D-01
 RMSDP=5.79D-03 MaxDP=8.10D-02              OVMax= 1.08D-01

 Cycle   2  Pass 1  IDiag  1:
 E= -96.2085541286537     Delta-E=       -0.018087972346 Rises=F Damp=T
 DIIS: error= 5.10D-03 at cycle   2 NSaved=   2.
 NSaved= 2 IEnMin= 2 EnMin= -96.2085541286537     IErMin= 2 ErrMin= 5.10D-03
 ErrMax= 5.10D-03 EMaxC= 1.00D-01 BMatC= 1.96D-03 BMatP= 3.58D-02
 IDIUse=3 WtCom= 9.49D-01 WtEn= 5.10D-02
 Coeff-Com: -0.413D-01 0.104D+01
 Coeff-En:   0.000D+00 0.100D+01
 Coeff:     -0.392D-01 0.104D+01
 Gap=     0.409 Goal=   None    Shift=    0.000
 DSYEVD returned Info=         201 IAlg= 4 N=   100 NDim=   100 NE2=    10586092 trying DSYEV.
 RMSDP=2.72D-03 MaxDP=6.65D-02 DE=-1.81D-02 OVMax= 5.41D-02

 Cycle   3  Pass 1  IDiag  1:
 E= -96.2267000603499     Delta-E=       -0.018145931696 Rises=F Damp=F
 DIIS: error= 3.37D-03 at cycle   3 NSaved=   3.
 NSaved= 3 IEnMin= 3 EnMin= -96.2267000603499     IErMin= 3 ErrMin= 3.37D-03
 ErrMax= 3.37D-03 EMaxC= 1.00D-01 BMatC= 4.95D-04 BMatP= 1.96D-03
 IDIUse=3 WtCom= 9.66D-01 WtEn= 3.37D-02
 Coeff-Com: -0.678D-01 0.325D+00 0.743D+00
 Coeff-En:   0.000D+00 0.000D+00 0.100D+01
 Coeff:     -0.655D-01 0.314D+00 0.752D+00
 Gap=     0.411 Goal=   None    Shift=    0.000
 DSYEVD returned Info=         201 IAlg= 4 N=   100 NDim=   100 NE2=    10586092 trying DSYEV.
 RMSDP=2.28D-04 MaxDP=4.76D-03 DE=-1.81D-02 OVMax= 7.05D-03

 Cycle   4  Pass 1  IDiag  1:
 E= -96.2271657818523     Delta-E=       -0.000465721502 Rises=F Damp=F
 DIIS: error= 7.12D-04 at cycle   4 NSaved=   4.
 NSaved= 4 IEnMin= 4 EnMin= -96.2271657818523     IErMin= 4 ErrMin= 7.12D-04
 ErrMax= 7.12D-04 EMaxC= 1.00D-01 BMatC= 3.02D-05 BMatP= 4.95D-04
 IDIUse=3 WtCom= 9.93D-01 WtEn= 7.12D-03
 Coeff-Com: -0.192D-01 0.653D-01 0.256D+00 0.698D+00
 Coeff-En:   0.000D+00 0.000D+00 0.000D+00 0.100D+01
 Coeff:     -0.191D-01 0.649D-01 0.254D+00 0.700D+00
 Gap=     0.410 Goal=   None    Shift=    0.000
 DSYEVD returned Info=         201 IAlg= 4 N=   100 NDim=   100 NE2=    10586092 trying DSYEV.
 RMSDP=5.43D-05 MaxDP=1.64D-03 DE=-4.66D-04 OVMax= 2.58D-03

 Cycle   5  Pass 1  IDiag  1:
 E= -96.2271868869536     Delta-E=       -0.000021105101 Rises=F Damp=F
 DIIS: error= 3.65D-04 at cycle   5 NSaved=   5.
 NSaved= 5 IEnMin= 5 EnMin= -96.2271868869536     IErMin= 5 ErrMin= 3.65D-04
 ErrMax= 3.65D-04 EMaxC= 1.00D-01 BMatC= 8.43D-06 BMatP= 3.02D-05
 IDIUse=3 WtCom= 9.96D-01 WtEn= 3.65D-03
 Coeff-Com: -0.566D-02 0.706D-02 0.845D-01 0.392D+00 0.522D+00
 Coeff-En:   0.000D+00 0.000D+00 0.000D+00 0.142D+00 0.858D+00
 Coeff:     -0.564D-02 0.704D-02 0.842D-01 0.391D+00 0.523D+00
 Gap=     0.410 Goal=   None    Shift=    0.000
 DSYEVD returned Info=         201 IAlg= 4 N=   100 NDim=   100 NE2=    10586092 trying DSYEV.
 RMSDP=1.84D-05 MaxDP=6.66D-04 DE=-2.11D-05 OVMax= 7.05D-04

 Cycle   6  Pass 1  IDiag  1:
 E= -96.2271936445581     Delta-E=       -0.000006757604 Rises=F Damp=F
 DIIS: error= 1.90D-05 at cycle   6 NSaved=   6.
 NSaved= 6 IEnMin= 6 EnMin= -96.2271936445581     IErMin= 6 ErrMin= 1.90D-05
 ErrMax= 1.90D-05 EMaxC= 1.00D-01 BMatC= 1.85D-08 BMatP= 8.43D-06
 IDIUse=1 WtCom= 1.00D+00 WtEn= 0.00D+00
 Coeff-Com: -0.206D-03-0.535D-03 0.517D-02 0.296D-01 0.752D-01 0.891D+00
 Coeff:     -0.206D-03-0.535D-03 0.517D-02 0.296D-01 0.752D-01 0.891D+00
 Gap=     0.410 Goal=   None    Shift=    0.000
 DSYEVD returned Info=         201 IAlg= 4 N=   100 NDim=   100 NE2=    10586092 trying DSYEV.
 RMSDP=1.52D-06 MaxDP=4.73D-05 DE=-6.76D-06 OVMax= 6.88D-05

 Cycle   7  Pass 1  IDiag  1:
 E= -96.2271936632677     Delta-E=       -0.000000018710 Rises=F Damp=F
 DIIS: error= 1.62D-06 at cycle   7 NSaved=   7.
 NSaved= 7 IEnMin= 7 EnMin= -96.2271936632677     IErMin= 7 ErrMin= 1.62D-06
 ErrMax= 1.62D-06 EMaxC= 1.00D-01 BMatC= 2.80D-10 BMatP= 1.85D-08
 IDIUse=1 WtCom= 1.00D+00 WtEn= 0.00D+00
 Coeff-Com:  0.691D-04-0.210D-03-0.417D-03-0.128D-02 0.245D-02 0.144D+00
 Coeff-Com:  0.856D+00
 Coeff:      0.691D-04-0.210D-03-0.417D-03-0.128D-02 0.245D-02 0.144D+00
 Coeff:      0.856D+00
 Gap=     0.410 Goal=   None    Shift=    0.000
 DSYEVD returned Info=         201 IAlg= 4 N=   100 NDim=   100 NE2=    10586092 trying DSYEV.
 RMSDP=3.07D-07 MaxDP=7.85D-06 DE=-1.87D-08 OVMax= 5.96D-06

 Cycle   8  Pass 1  IDiag  1:
 E= -96.2271936636053     Delta-E=       -0.000000000338 Rises=F Damp=F
 DIIS: error= 1.80D-07 at cycle   8 NSaved=   8.
 NSaved= 8 IEnMin= 8 EnMin= -96.2271936636053     IErMin= 8 ErrMin= 1.80D-07
 ErrMax= 1.80D-07 EMaxC= 1.00D-01 BMatC= 3.52D-12 BMatP= 2.80D-10
 IDIUse=1 WtCom= 1.00D+00 WtEn= 0.00D+00
 Coeff-Com:  0.168D-04-0.166D-04-0.226D-03-0.108D-02-0.206D-02-0.760D-02
 Coeff-Com:  0.714D-01 0.940D+00
 Coeff:      0.168D-04-0.166D-04-0.226D-03-0.108D-02-0.206D-02-0.760D-02
 Coeff:      0.714D-01 0.940D+00
 Gap=     0.410 Goal=   None    Shift=    0.000
 DSYEVD returned Info=         201 IAlg= 4 N=   100 NDim=   100 NE2=    10586092 trying DSYEV.
 RMSDP=2.05D-08 MaxDP=4.65D-07 DE=-3.38D-10 OVMax= 8.29D-07

 Cycle   9  Pass 1  IDiag  1:
 E= -96.2271936636095     Delta-E=       -0.000000000004 Rises=F Damp=F
 DIIS: error= 3.04D-08 at cycle   9 NSaved=   9.
 NSaved= 9 IEnMin= 9 EnMin= -96.2271936636095     IErMin= 9 ErrMin= 3.04D-08
 ErrMax= 3.04D-08 EMaxC= 1.00D-01 BMatC= 5.35D-14 BMatP= 3.52D-12
 IDIUse=1 WtCom= 1.00D+00 WtEn= 0.00D+00
 Coeff-Com: -0.112D-05 0.238D-05 0.749D-06 0.226D-04-0.299D-04-0.785D-03
 Coeff-Com: -0.527D-02 0.106D-01 0.995D+00
 Coeff:     -0.112D-05 0.238D-05 0.749D-06 0.226D-04-0.299D-04-0.785D-03
 Coeff:     -0.527D-02 0.106D-01 0.995D+00
 Gap=     0.410 Goal=   None    Shift=    0.000
 DSYEVD returned Info=         201 IAlg= 4 N=   100 NDim=   100 NE2=    10586092 trying DSYEV.
 RMSDP=2.09D-09 MaxDP=5.15D-08 DE=-4.26D-12 OVMax= 5.93D-08

 SCF Done:  E(RB3LYP) =  -96.2271936636     A.U. after    9 cycles
             Convg  =    0.2090D-08             -V/T =  2.0078
 KE= 9.547792990709D+01 PE=-3.130285790133D+02 EE= 7.373884538318D+01
 Leave Link  502 at Thu Feb 26 00:40:30 2015, MaxMem= 1073741824 cpu:      15.3
 (Enter /apps/gaussian/g09_c01/g09/l801.exe)
 Range of M.O.s used for correlation:     1   100
 NBasis=   100 NAE=     9 NBE=     9 NFC=     0 NFV=     0
 NROrb=    100 NOA=     9 NOB=     9 NVA=    91 NVB=    91

 **** Warning!!: The largest alpha MO coefficient is  0.22102999D+02

 Leave Link  801 at Thu Feb 26 00:40:30 2015, MaxMem= 1073741824 cpu:       0.1
 (Enter /apps/gaussian/g09_c01/g09/l1002.exe)
 Minotr:  Closed shell wavefunction.
          Direct CPHF calculation.
          Differentiating once with respect to electric field.
                with respect to dipole field.
          Electric field/nuclear overlap derivatives assumed to be zero.
          Using symmetry in CPHF.
          Requested convergence is 1.0D-08 RMS, and 1.0D-07 maximum.
          Secondary convergence is 1.0D-12 RMS, and 1.0D-12 maximum.
          NewPWx=F KeepS1=T KeepF1=T KeepIn=T MapXYZ=F SortEE=F KeepMc=T.
          MDV=    1073741756 using IRadAn=       1.
 Generate precomputed XC quadrature information.
          Keep R1 ints in memory in canonical form, NReq=15731880.
 Symmetry not used in FoFDir.
 MinBra= 0 MaxBra= 2 Meth= 1.
 IRaf=       0 NMat=   1 IRICut=       1 DoRegI=T DoRafI=F ISym2E= 0 JSym2E=0.
          Solving linear equations simultaneously, MaxMat=       0.
          There are     3 degrees of freedom in the 1st order CPHF.  IDoFFX=0.
      3 vectors produced by pass  0 Test12= 2.73D-14 3.33D-08 XBig12= 1.08D+01 1.39D+00.
 AX will form     3 AO Fock derivatives at one time.
      3 vectors produced by pass  1 Test12= 2.73D-14 3.33D-08 XBig12= 6.64D-01 3.09D-01.
      3 vectors produced by pass  2 Test12= 2.73D-14 3.33D-08 XBig12= 1.57D-01 1.14D-01.
      3 vectors produced by pass  3 Test12= 2.73D-14 3.33D-08 XBig12= 8.49D-03 2.64D-02.
      3 vectors produced by pass  4 Test12= 2.73D-14 3.33D-08 XBig12= 1.71D-03 9.63D-03.
      3 vectors produced by pass  5 Test12= 2.73D-14 3.33D-08 XBig12= 5.57D-05 1.95D-03.
      3 vectors produced by pass  6 Test12= 2.73D-14 3.33D-08 XBig12= 1.86D-06 3.74D-04.
      3 vectors produced by pass  7 Test12= 2.73D-14 3.33D-08 XBig12= 2.72D-08 6.27D-05.
      1 vectors produced by pass  8 Test12= 2.73D-14 3.33D-08 XBig12= 6.73D-11 2.25D-06.
      1 vectors produced by pass  9 Test12= 2.73D-14 3.33D-08 XBig12= 1.49D-13 1.26D-07.
 Inverted reduced A of dimension    26 with in-core refinement.
 End of Minotr Frequency-dependent properties file   721 does not exist.
 End of Minotr Frequency-dependent properties file   722 does not exist.
 Leave Link 1002 at Thu Feb 26 00:40:34 2015, MaxMem= 1073741824 cpu:      31.7
 (Enter /apps/gaussian/g09_c01/g09/l1101.exe)
 Using compressed storage, NAtomX=     8.
 Will process   9 centers per pass.
 Leave Link 1101 at Thu Feb 26 00:40:34 2015, MaxMem= 1073741824 cpu:       1.0
 (Enter /apps/gaussian/g09_c01/g09/l1102.exe)
 Symmetrizing basis deriv contribution to polar:
 IMax=3 JMax=2 DiffMx= 0.00D+00
 Leave Link 1102 at Thu Feb 26 00:40:34 2015, MaxMem= 1073741824 cpu:       0.2
 (Enter /apps/gaussian/g09_c01/g09/l1110.exe)
 Forming Gx(P) for the SCF density, NAtomX=     8.
 Integral derivatives from FoFDir/FoFCou, PRISM(SPDF).
 Do as many integral derivatives as possible in FoFDir.
 G2DrvN: MDV=    1073741656.
 G2DrvN: will do     9 centers at a time, making    1 passes doing MaxLOS=2.
 Calling FoFCou, ICntrl=  3107 FMM=F I1Cent=   0 AccDes= 0.00D+00.
 FoFCou: FMM=F IPFlag=           0 FMFlag=      100000 FMFlg1=           0
         NFxFlg=           0 DoJE=F BraDBF=F KetDBF=F FulRan=T
         Omega=  0.000000  0.000000  1.000000  0.000000  0.000000 ICntrl=    3107 IOpCl=  0
         NMat0=    1 NMatS0=    1 NMatT0=    0 NMatD0=    4 NMtDS0=    3 NMtDT0=    0
         I1Cent=           0 NGrid=           0.
 Petite list used in FoFCou.
 FoFDir/FoFCou used for L=0 through L=2.
 End of G2Drv Frequency-dependent properties file   721 does not exist.
 End of G2Drv Frequency-dependent properties file   722 does not exist.
 Leave Link 1110 at Thu Feb 26 00:40:41 2015, MaxMem= 1073741824 cpu:      54.0
 (Enter /apps/gaussian/g09_c01/g09/l1002.exe)
 Minotr:  Closed shell wavefunction.
          IDoAtm=11111111
          Direct CPHF calculation.
          Differentiating once with respect to electric field.
                with respect to dipole field.
          Differentiating once with respect to nuclear coordinates.
          Using symmetry in CPHF.
          Requested convergence is 1.0D-08 RMS, and 1.0D-07 maximum.
          Secondary convergence is 1.0D-12 RMS, and 1.0D-12 maximum.
          NewPWx=T KeepS1=F KeepF1=F KeepIn=T MapXYZ=F SortEE=F KeepMc=T.
          MDV=    1073741740 using IRadAn=       1.
 Generate precomputed XC quadrature information.
          Keep R1 ints in memory in canonical form, NReq=15732048.
 Symmetry not used in FoFDir.
 MinBra= 0 MaxBra= 2 Meth= 1.
 IRaf=       0 NMat=   1 IRICut=       1 DoRegI=T DoRafI=F ISym2E= 0 JSym2E=0.
          Solving linear equations simultaneously, MaxMat=       0.
          There are    15 degrees of freedom in the 1st order CPHF.  IDoFFX=4.
 Will reuse    3 saved solutions.
     12 vectors produced by pass  0 Test12= 5.46D-15 6.67D-09 XBig12= 8.73D-02 1.05D-01.
 AX will form    12 AO Fock derivatives at one time.
     12 vectors produced by pass  1 Test12= 5.46D-15 6.67D-09 XBig12= 1.17D-02 4.43D-02.
     12 vectors produced by pass  2 Test12= 5.46D-15 6.67D-09 XBig12= 6.19D-04 7.86D-03.
     12 vectors produced by pass  3 Test12= 5.46D-15 6.67D-09 XBig12= 4.56D-06 3.95D-04.
     12 vectors produced by pass  4 Test12= 5.46D-15 6.67D-09 XBig12= 1.14D-08 2.63D-05.
     11 vectors produced by pass  5 Test12= 5.46D-15 6.67D-09 XBig12= 1.44D-11 6.59D-07.
      1 vectors produced by pass  6 Test12= 5.46D-15 6.67D-09 XBig12= 1.21D-14 2.07D-08.
 Inverted reduced A of dimension    72 with in-core refinement.
 FullF1:  Do perturbations    1 to    15.
 Isotropic polarizability for W=    0.000000       20.54 Bohr**3.
 FullF1:  Do perturbations    1 to     6.
 End of Minotr Frequency-dependent properties file   721 does not exist.
 End of Minotr Frequency-dependent properties file   722 does not exist.
 Leave Link 1002 at Thu Feb 26 00:40:48 2015, MaxMem= 1073741824 cpu:      56.9
 (Enter /apps/gaussian/g09_c01/g09/l601.exe)
 Copying SCF densities to generalized density rwf, IOpCl= 0 IROHF=0.

 **********************************************************************

            Population analysis using the SCF density.

 **********************************************************************

 Orbital symmetries:
       Occupied  (A) (A) (A) (A) (E) (E) (A) (E) (E)
       Virtual   (A) (A) (E) (E) (E) (E) (A) (A) (E) (E) (E) (E)
                 (A) (A) (E) (E) (E) (E) (A) (E) (E) (A) (A) (E)
                 (E) (A) (A) (E) (E) (E) (E) (A) (E) (E) (A) (A)
                 (E) (E) (A) (E) (E) (A) (E) (E) (E) (E) (A) (E)
                 (E) (E) (E) (A) (A) (A) (E) (E) (E) (E) (E) (E)
                 (A) (A) (A) (E) (E) (A) (E) (E) (A) (E) (E) (A)
                 (E) (E) (E) (E) (A) (E) (E) (E) (E) (A) (A) (E)
                 (E) (A) (E) (E) (A) (E) (E)
 The electronic state is 1-A.
 Alpha  occ. eigenvalues --  -14.68198 -10.45207  -1.22446  -0.93846  -0.80629
 Alpha  occ. eigenvalues --   -0.80629  -0.70910  -0.62941  -0.62941
 Alpha virt. eigenvalues --   -0.21959  -0.15389  -0.15216  -0.15216  -0.10756
 Alpha virt. eigenvalues --   -0.10756  -0.09960  -0.07188  -0.06847  -0.06847
 Alpha virt. eigenvalues --   -0.04542  -0.04542  -0.04418  -0.01634  -0.01523
 Alpha virt. eigenvalues --   -0.01523   0.00470   0.00470   0.02005   0.07121
 Alpha virt. eigenvalues --    0.07121   0.10165   0.15576   0.15751   0.15751
 Alpha virt. eigenvalues --    0.16936   0.17569   0.21135   0.21135   0.25214
 Alpha virt. eigenvalues --    0.25214   0.25562   0.27743   0.27743   0.27805
 Alpha virt. eigenvalues --    0.28346   0.29853   0.29853   0.32415   0.36837
 Alpha virt. eigenvalues --    0.36837   0.42579   0.43070   0.43070   0.49595
 Alpha virt. eigenvalues --    0.49595   0.58984   0.61850   0.61850   0.64008
 Alpha virt. eigenvalues --    0.64008   0.65014   0.71338   0.84689   0.87247
 Alpha virt. eigenvalues --    0.87247   1.09687   1.09687   1.26801   1.26801
 Alpha virt. eigenvalues --    1.34356   1.38595   1.40520   1.43559   1.43559
 Alpha virt. eigenvalues --    1.45451   1.56564   1.56564   1.59748   1.71230
 Alpha virt. eigenvalues --    1.71230   1.75413   1.78004   1.78004   1.88914
 Alpha virt. eigenvalues --    1.88914   1.93232   1.93576   1.93576   2.15404
 Alpha virt. eigenvalues --    2.15404   2.19777   2.27009   2.29331   2.29331
 Alpha virt. eigenvalues --    2.33142   2.48267   2.48267   2.56616   2.90845
 Alpha virt. eigenvalues --    2.90845
          Condensed to atoms (all electrons):
              1          2          3          4          5          6
     1  C    3.903007   0.313632   0.313632   0.313632   0.174351  -0.049489
     2  H    0.313632   1.511389  -0.266323  -0.266323  -0.081950   0.038967
     3  H    0.313632  -0.266323   1.511389  -0.266323  -0.081950  -0.025954
     4  H    0.313632  -0.266323  -0.266323   1.511389  -0.081950  -0.025956
     5  N    0.174351  -0.081950  -0.081950  -0.081950   5.866854   0.354325
     6  H   -0.049489   0.038967  -0.025954  -0.025956   0.354325   0.793164
     7  H   -0.049489  -0.025954  -0.025956   0.038967   0.354325  -0.095956
     8  H   -0.049489  -0.025956   0.038967  -0.025954   0.354325  -0.095956
              7          8
     1  C   -0.049489  -0.049489
     2  H   -0.025954  -0.025956
     3  H   -0.025956   0.038967
     4  H    0.038967  -0.025954
     5  N    0.354325   0.354325
     6  H   -0.095956  -0.095956
     7  H    0.793164  -0.095956
     8  H   -0.095956   0.793164
 Mulliken atomic charges:
              1
     1  C    1.130213
     2  H   -0.197482
     3  H   -0.197482
     4  H   -0.197482
     5  N    0.141669
     6  H    0.106854
     7  H    0.106854
     8  H    0.106854
 Sum of Mulliken atomic charges =   1.00000
 Mulliken charges with hydrogens summed into heavy atoms:
              1
     1  C    0.537767
     5  N    0.462233
 Sum of Mulliken charges with hydrogens summed into heavy atoms =   1.00000
 APT atomic charges:
              1
     1  C    0.253718
     2  H    0.067127
     3  H    0.067128
     4  H    0.067128
     5  N   -0.216042
     6  H    0.253646
     7  H    0.253647
     8  H    0.253646
 Sum of APT charges=   1.00000
 APT Atomic charges with hydrogens summed into heavy atoms:
              1
     1  C    0.455101
     2  H    0.000000
     3  H    0.000000
     4  H    0.000000
     5  N    0.544897
     6  H    0.000000
     7  H    0.000000
     8  H    0.000000
 Sum of APT charges=   1.00000
 Electronic spatial extent (au):  <R**2>=             94.8971
 Charge=              1.0000 electrons
 Dipole moment (field-independent basis, Debye):
    X=              0.0000    Y=              0.0000    Z=              2.1643  Tot=              2.1643
 Quadrupole moment (field-independent basis, Debye-Ang):
   XX=            -10.2509   YY=            -10.2509   ZZ=             -6.7786
   XY=              0.0000   XZ=              0.0000   YZ=              0.0000
 Traceless Quadrupole moment (field-independent basis, Debye-Ang):
   XX=             -1.1574   YY=             -1.1574   ZZ=              2.3149
   XY=              0.0000   XZ=              0.0000   YZ=              0.0000
 Octapole moment (field-independent basis, Debye-Ang**2):
  XXX=             -0.3790  YYY=             -0.1088  ZZZ=              5.7007  XYY=              0.3790
  XXY=              0.1088  XXZ=              2.5929  XZZ=              0.0000  YZZ=              0.0000
  YYZ=              2.5929  XYZ=              0.0000
 Hexadecapole moment (field-independent basis, Debye-Ang**3):
 XXXX=            -18.4554 YYYY=            -18.4554 ZZZZ=            -63.0161 XXXY=              0.0000
 XXXZ=             -2.7141 YYYX=              0.0000 YYYZ=             -0.7757 ZZZX=              0.0000
 ZZZY=              0.0000 XXYY=             -6.1518 XXZZ=            -11.0347 YYZZ=            -11.0347
 XXYZ=              0.7757 YYXZ=              2.7141 ZZXY=              0.0000
 N-N= 4.758461005939D+01 E-N=-3.130285771088D+02  KE= 9.547792990709D+01
  Exact polarizability:  19.484   0.000  19.484   0.000   0.000  22.663
 Approx polarizability:  26.029   0.000  26.029   0.000   0.000  27.499
 No NMR shielding tensors so no spin-rotation constants.
 Leave Link  601 at Thu Feb 26 00:40:48 2015, MaxMem= 1073741824 cpu:       1.0
 (Enter /apps/gaussian/g09_c01/g09/l701.exe)
 Compute integral second derivatives.
 ... and contract with generalized density number  0.
 Leave Link  701 at Thu Feb 26 00:40:48 2015, MaxMem= 1073741824 cpu:       1.2
 (Enter /apps/gaussian/g09_c01/g09/l702.exe)
 L702 exits ... SP integral derivatives will be done elsewhere.
 Leave Link  702 at Thu Feb 26 00:40:48 2015, MaxMem= 1073741824 cpu:       0.1
 (Enter /apps/gaussian/g09_c01/g09/l703.exe)
 Compute integral second derivatives, UseDBF=F ICtDFT=           0.
 Integral derivatives from FoFDir, PRISM(SPDF).
 Calling FoFJK, ICntrl=    100127 FMM=F ISym2X=1 I1Cent= 0 IOpClX= 0 NMat=1 NMatS=1 NMatT=0.
 FoFCou: FMM=F IPFlag=           0 FMFlag=      100000 FMFlg1=         800
         NFxFlg=           0 DoJE=F BraDBF=F KetDBF=F FulRan=T
         Omega=  0.000000  0.000000  1.000000  0.000000  0.000000 ICntrl=  100127 IOpCl=  0
         NMat0=    1 NMatS0=    1 NMatT0=    0 NMatD0=    1 NMtDS0=    0 NMtDT0=    0
         I1Cent=           0 NGrid=           0.
 Petite list used in FoFCou.
 Leave Link  703 at Thu Feb 26 00:40:54 2015, MaxMem= 1073741824 cpu:      45.5
 (Enter /apps/gaussian/g09_c01/g09/l716.exe)
 Dipole        = 1.70263109D-15-2.54136989D-16 8.51516763D-01
 Polarizability= 1.94836821D+01 1.98852763D-05 1.94837047D+01
                 1.92407705D-05 4.20744013D-05 2.26629233D+01
 HyperPolar    = 1.61673139D+00-4.60559236D-01-1.61493643D+00
                 4.59619608D-01-2.76871876D+00-3.32591501D-04
                -2.76870789D+00-1.33753081D-03-3.42441251D-04
                 6.79153646D+00
 ***** Axes restored to original set *****
 -------------------------------------------------------------------
 Center     Atomic                   Forces (Hartrees/Bohr)
 Number     Number              X              Y              Z
 -------------------------------------------------------------------
      1        6           0.000000000    0.000000000    0.003464053
      2        1          -0.000232053   -0.002491549   -0.000475065
      3        1          -0.002041718    0.001446738   -0.000475065
      4        1           0.002273771    0.001044811   -0.000475065
      5        7           0.000000000    0.000000000   -0.000049319
      6        1          -0.000130891   -0.001399727   -0.000663180
      7        1           0.001277644    0.000586508   -0.000663180
      8        1          -0.001146753    0.000813218   -0.000663180
 -------------------------------------------------------------------
 Cartesian Forces:  Max     0.003464053 RMS     0.001270050
 Force constants in Cartesian coordinates: 
                1             2             3             4             5 
      1  0.637275D+00
      2  0.000000D+00  0.637276D+00
      3  0.000000D+00  0.000000D+00  0.397125D+00
      4 -0.505890D-01 -0.250539D-01 -0.807345D-02  0.464978D-01
      5 -0.250540D-01 -0.317665D+00 -0.867715D-01  0.265717D-01  0.329754D+00
      6 -0.664207D-02 -0.713781D-01 -0.704168D-01  0.823821D-02  0.885392D-01
      7 -0.229199D+00  0.128175D+00 -0.711097D-01  0.421965D-02 -0.349355D-02
      8  0.128174D+00 -0.139056D+00  0.503775D-01  0.226137D-01 -0.121834D-01
      9 -0.584943D-01  0.414412D-01 -0.704167D-01  0.883906D-02 -0.430298D-02
     10 -0.272593D+00 -0.103120D+00  0.791829D-01  0.196638D-03  0.117086D-02
     11 -0.103121D+00 -0.956607D-01  0.363937D-01 -0.249364D-01 -0.816038D-02
     12  0.651360D-01  0.299366D-01 -0.704163D-01 -0.948070D-02 -0.259927D-02
     13 -0.944430D-01 -0.206316D-05  0.000000D+00 -0.958489D-03  0.711230D-03
     14  0.201439D-05 -0.944430D-01  0.000000D+00  0.710600D-03  0.662100D-02
     15  0.000000D+00  0.000000D+00 -0.151714D+00  0.396189D-03  0.426668D-02
     16 -0.323984D-04  0.604426D-03 -0.189686D-03  0.414119D-03  0.500054D-04
     17  0.603585D-03  0.639851D-02 -0.204300D-02  0.499378D-04  0.946116D-03
     18 -0.302808D-02 -0.325295D-01 -0.113874D-01  0.200260D-03  0.215544D-02
     19  0.531381D-02  0.248303D-02  0.186407D-02  0.203690D-03  0.280338D-03
     20  0.248215D-02  0.105226D-02  0.857166D-03  0.766999D-03  0.249546D-03
     21  0.296856D-01  0.136424D-01 -0.113871D-01  0.342751D-03 -0.681186D-03
     22  0.426771D-02 -0.308623D-02 -0.167449D-02  0.156805D-04 -0.236503D-03
     23 -0.308718D-02  0.209842D-02  0.118561D-02 -0.722810D-03  0.438451D-03
     24 -0.266572D-01  0.188871D-01 -0.113872D-01 -0.462358D-03 -0.606376D-03
                6             7             8             9            10 
      6  0.857881D-01
      7  0.248932D-02  0.235928D+00
      8  0.951016D-02 -0.135939D+00  0.140324D+00
      9  0.493870D-02  0.725581D-01 -0.514041D-01  0.857881D-01
     10 -0.693042D-03 -0.163619D-01 -0.107309D-01  0.699138D-02  0.281952D+00
     11  0.980633D-02  0.153763D-01  0.839816D-02 -0.691090D-02  0.109368D+00
     12  0.493870D-02 -0.814601D-02 -0.550336D-02  0.493870D-02 -0.807963D-01
     13 -0.339511D-02  0.411056D-02 -0.363712D-02 -0.299139D-01  0.534176D-02
     14 -0.365019D-01 -0.363777D-02  0.155202D-02  0.211912D-01  0.292617D-02
     15 -0.208553D-01  0.349681D-02 -0.247642D-02 -0.208552D-01 -0.389308D-02
     16  0.179123D-03 -0.215428D-03 -0.525021D-03 -0.730201D-03 -0.826364D-04
     17  0.191989D-02 -0.383605D-04  0.668664D-03  0.615835D-03  0.179740D-03
     18 -0.659810D-02 -0.761300D-03  0.437616D-04  0.110185D-02  0.756316D-03
     19 -0.168228D-03  0.748153D-03  0.299917D-03 -0.823182D-03  0.856394D-03
     20 -0.940290D-03 -0.186390D-03 -0.294022D-03  0.484820D-03  0.205342D-03
     21  0.110185D-02 -0.293958D-03  0.703602D-03  0.110274D-02 -0.196679D-02
     22 -0.827544D-05  0.769840D-03 -0.255313D-03  0.157311D-02  0.691592D-03
     23 -0.955307D-03 -0.255381D-03  0.590395D-03 -0.111507D-02  0.135247D-05
     24  0.110274D-02  0.176653D-02 -0.125115D-02 -0.659810D-02  0.418548D-03
               11            12            13            14            15 
     11  0.943001D-01
     12 -0.371351D-01  0.857881D-01
     13  0.292693D-02  0.333090D-01  0.711603D+00
     14  0.320733D-03  0.153106D-01  0.000000D+00  0.711603D+00
     15 -0.179035D-02 -0.208550D-01  0.000000D+00  0.000000D+00  0.508810D+00
     16  0.666047D-03  0.831458D-03 -0.638439D-01 -0.271832D-01 -0.101236D-01
     17  0.536768D-03  0.470487D-03 -0.271826D-01 -0.353259D+00 -0.108721D+00
     18 -0.972258D-04  0.110274D-02 -0.107376D-01 -0.115320D+00 -0.981772D-01
     19  0.205409D-03 -0.175224D-02 -0.304446D+00 -0.111729D+00  0.992171D-01
     20  0.503842D-03 -0.804821D-03 -0.111729D+00 -0.112656D+00  0.455932D-01
     21 -0.904289D-03 -0.659810D-02  0.105238D+00  0.483609D-01 -0.981771D-01
     22 -0.485308D-03  0.898429D-03 -0.257364D+00  0.138911D+00 -0.890935D-01
     23 -0.238356D-03  0.324455D-03  0.138912D+00 -0.159739D+00  0.631279D-01
     24  0.637424D-03  0.110185D-02 -0.945012D-01  0.669589D-01 -0.981771D-01
               16            17            18            19            20 
     16  0.592421D-01
     17  0.293821D-01  0.372064D+00
     18  0.110084D-01  0.118239D+00  0.103371D+00
     19 -0.334033D-03  0.443970D-03 -0.608853D-03  0.319304D+00
     20 -0.310417D-01 -0.110846D-01  0.139305D-01  0.120765D+00  0.112002D+00
     21 -0.133442D-01 -0.404302D-02  0.529375D-02 -0.107902D+00 -0.495859D-01
     22  0.485226D-02 -0.343828D-02  0.317074D-02 -0.216462D-01  0.187372D-01
     23  0.280474D-01 -0.162709D-01  0.135779D-01 -0.127486D-01  0.102275D-01
     24  0.123686D-01 -0.643799D-02  0.529375D-02  0.101735D-01 -0.953491D-02
               21            22            23            24 
     21  0.103371D+00
     22 -0.117598D-01  0.268413D+00
     23 -0.749255D-02 -0.150147D+00  0.162893D+00
     24  0.529375D-02  0.968938D-01 -0.686531D-01  0.103371D+00
 Force constants in internal coordinates: 
                1             2             3             4             5 
      1  0.360953D+00
      2  0.138862D-02  0.360953D+00
      3  0.138864D-02  0.138863D-02  0.360953D+00
      4  0.297883D-02  0.297888D-02  0.297890D-02  0.261622D+00
      5 -0.139860D-02  0.298387D-03  0.298478D-03  0.490531D-02  0.419311D+00
      6  0.298401D-03  0.298479D-03 -0.139857D-02  0.490531D-02  0.181655D-02
      7  0.298478D-03 -0.139858D-02  0.298378D-03  0.490525D-02  0.181654D-02
      8  0.371625D-02  0.371753D-02 -0.138087D-02 -0.263249D-01  0.504652D-04
      9  0.371753D-02 -0.138095D-02  0.371637D-02 -0.263249D-01  0.510590D-04
     10  0.887414D-03 -0.362633D-02 -0.362670D-02  0.276847D-01  0.236795D-02
     11 -0.138094D-02  0.371627D-02  0.371764D-02 -0.263249D-01  0.917413D-03
     12 -0.362659D-02  0.887368D-03 -0.362644D-02  0.276848D-01 -0.171951D-02
     13 -0.362635D-02 -0.362658D-02  0.887299D-03  0.276850D-01 -0.172001D-02
     14  0.667937D-03  0.723298D-04  0.719313D-04  0.135514D-01 -0.480213D-02
     15  0.723561D-04  0.719260D-04  0.668007D-03  0.135514D-01 -0.388971D-02
     16  0.719013D-04  0.667955D-03  0.723915D-04  0.135515D-01 -0.388975D-02
     17 -0.382616D-03 -0.108016D-03 -0.382262D-03 -0.145633D-01  0.670271D-02
     18 -0.382202D-03 -0.382620D-03 -0.108056D-03 -0.145634D-01  0.670561D-02
     19 -0.108024D-03 -0.382223D-03 -0.382670D-03 -0.145633D-01  0.112759D-03
     20  0.000000D+00 -0.286961D-02  0.286933D-02  0.000000D+00  0.182991D-05
     21  0.201368D-04 -0.290850D-02  0.288889D-02  0.000000D+00  0.259324D-02
     22 -0.187669D-04 -0.288894D-02  0.290823D-02  0.000000D+00 -0.259324D-02
     23  0.288887D-02  0.201270D-04 -0.290852D-02  0.000000D+00  0.431052D-03
     24  0.290822D-02 -0.187672D-04 -0.288897D-02  0.000000D+00  0.302246D-02
     25  0.286931D-02  0.000000D+00 -0.286962D-02  0.000000D+00 -0.216402D-02
     26 -0.288895D-02  0.290821D-02 -0.187604D-04  0.000000D+00 -0.427820D-03
     27 -0.286960D-02  0.286932D-02  0.000000D+00  0.000000D+00  0.216359D-02
     28 -0.290851D-02  0.288888D-02  0.201391D-04  0.000000D+00 -0.302289D-02
                6             7             8             9            10 
      6  0.419311D+00
      7  0.181654D-02  0.419311D+00
      8  0.917361D-03  0.510113D-04  0.518126D-01
      9  0.503661D-04  0.917388D-03  0.120489D-01  0.518125D-01
     10 -0.171948D-02 -0.171998D-02 -0.452222D-01 -0.452185D-01  0.132147D+00
     11  0.509486D-04  0.504082D-04  0.120488D-01  0.120488D-01  0.106090D-01
     12 -0.171999D-02  0.236798D-02 -0.452185D-01  0.106090D-01 -0.240957D-01
     13  0.236818D-02 -0.171944D-02  0.106090D-01 -0.452221D-01 -0.240959D-01
     14 -0.388983D-02 -0.388972D-02 -0.401507D-02 -0.401531D-02  0.169313D-01
     15 -0.480220D-02 -0.388975D-02  0.323347D-02 -0.401514D-02 -0.594287D-02
     16 -0.388978D-02 -0.480223D-02 -0.401531D-02  0.323345D-02 -0.594378D-02
     17  0.670570D-02  0.112773D-03  0.780283D-03  0.359465D-02 -0.476026D-02
     18  0.112821D-03  0.670277D-02  0.359462D-02  0.780195D-03 -0.475979D-02
     19  0.670280D-02  0.670566D-02  0.780216D-03  0.780350D-03  0.409868D-02
     20 -0.216401D-02  0.216360D-02 -0.573253D-02  0.573070D-02  0.197032D-05
     21  0.431069D-03 -0.302288D-02 -0.527310D-02  0.481210D-02  0.146101D-02
     22  0.302249D-02 -0.427806D-03 -0.481393D-02  0.527156D-02 -0.145705D-02
     23 -0.302292D-02  0.259323D-02  0.481214D-02  0.459454D-03  0.735966D-02
     24 -0.427839D-03 -0.259325D-02  0.527157D-02 -0.459145D-03  0.881870D-02
     25  0.216358D-02  0.182322D-05  0.573074D-02  0.000000D+00  0.590064D-02
     26 -0.259326D-02  0.302244D-02 -0.459175D-03 -0.481395D-02 -0.736005D-02
     27  0.181739D-05 -0.216403D-02  0.000000D+00 -0.573255D-02 -0.590100D-02
     28  0.259324D-02  0.431036D-03  0.459424D-03 -0.527309D-02 -0.881906D-02
               11            12            13            14            15 
     11  0.518125D-01
     12 -0.452222D-01  0.132147D+00
     13 -0.452184D-01 -0.240958D-01  0.132147D+00
     14  0.323344D-02 -0.594286D-02 -0.594372D-02  0.978121D-01
     15 -0.401536D-02 -0.594378D-02  0.169315D-01 -0.180814D-01  0.978122D-01
     16 -0.401519D-02  0.169313D-01 -0.594268D-02 -0.180814D-01 -0.180815D-01
     17  0.780244D-03  0.409871D-02 -0.475993D-02 -0.397788D-01 -0.397781D-01
     18  0.780348D-03 -0.476029D-02  0.409861D-02 -0.397781D-01  0.133041D-01
     19  0.359472D-02 -0.475980D-02 -0.476049D-02  0.133041D-01 -0.397788D-01
     20  0.000000D+00 -0.590103D-02  0.590070D-02  0.000000D+00 -0.246024D-02
     21  0.459432D-03 -0.881905D-02  0.735968D-02  0.390629D-02  0.144693D-02
     22 -0.459146D-03 -0.736004D-02  0.881868D-02 -0.390699D-02  0.535314D-02
     23 -0.527308D-02  0.146101D-02 -0.881910D-02  0.144691D-02 -0.535307D-02
     24 -0.481392D-02 -0.145701D-02 -0.736012D-02  0.535308D-02 -0.144589D-02
     25 -0.573250D-02  0.199678D-05 -0.590112D-02 -0.246020D-02  0.246031D-02
     26  0.527153D-02  0.881867D-02 -0.145695D-02 -0.144591D-02 -0.390704D-02
     27  0.573069D-02  0.590065D-02  0.204193D-05  0.246026D-02  0.000000D+00
     28  0.481211D-02  0.735966D-02  0.146104D-02 -0.535302D-02  0.390633D-02
               16            17            18            19            20 
     16  0.978121D-01
     17  0.133041D-01  0.528732D-01
     18 -0.397788D-01  0.916340D-02  0.528732D-01
     19 -0.397780D-01  0.916337D-02  0.916336D-02  0.528732D-01
     20  0.246034D-02 -0.701240D-02  0.701213D-02  0.000000D+00  0.141045D-01
     21 -0.535300D-02  0.589755D-02  0.557420D-03 -0.645521D-02  0.347724D-02
     22 -0.144586D-02 -0.557202D-03 -0.589784D-02  0.645473D-02  0.347735D-02
     23  0.390632D-02 -0.645517D-02  0.589755D-02  0.557439D-03  0.389053D-02
     24 -0.390702D-02  0.645478D-02 -0.557163D-03 -0.589780D-02 -0.673677D-02
     25  0.000000D+00  0.000000D+00 -0.701242D-02  0.701213D-02 -0.673666D-02
     26  0.535308D-02 -0.589779D-02  0.645479D-02 -0.557137D-03  0.389066D-02
     27 -0.246026D-02  0.701216D-02  0.000000D+00 -0.701238D-02 -0.673664D-02
     28  0.144688D-02  0.557408D-03 -0.645518D-02  0.589756D-02 -0.673653D-02
               21            22            23            24            25 
     21  0.146652D-01
     22  0.375771D-02  0.146655D-01
     23 -0.701701D-02 -0.729747D-02  0.146653D-01
     24  0.417098D-02 -0.701712D-02  0.375772D-02  0.146655D-01
     25 -0.673654D-02  0.389063D-02  0.347725D-02  0.347737D-02  0.141045D-01
     26 -0.729746D-02 -0.701710D-02  0.417099D-02 -0.701712D-02 -0.673676D-02
     27  0.389053D-02 -0.673674D-02 -0.673654D-02  0.389063D-02 -0.673664D-02
     28 -0.701699D-02  0.417101D-02 -0.701701D-02 -0.729747D-02  0.389053D-02
               26            27            28 
     26  0.146655D-01
     27  0.347734D-02  0.141045D-01
     28  0.375770D-02  0.347724D-02  0.146652D-01
 Leave Link  716 at Thu Feb 26 00:40:54 2015, MaxMem= 1073741824 cpu:       0.1
 (Enter /apps/gaussian/g09_c01/g09/l103.exe)

 GradGradGradGradGradGradGradGradGradGradGradGradGradGradGradGradGradGrad
 Berny optimization.
 Red2BG is reusing G-inverse.
 Internal  Forces:  Max     0.002525635 RMS     0.001057109
 Search for a local minimum.
 Step number   1 out of a maximum of   38
 All quantities printed in internal units (Hartrees-Bohrs-Radians)
 RMS Force = .10571D-02 SwitMx=.10000D-02 MixMth= 1
 Mixed Optimization -- RFO/linear search
 Second derivative matrix not updated -- analytic derivatives used.
 ITU=  0
     Eigenvalues ---    0.00189   0.04667   0.04667   0.04811   0.04811
     Eigenvalues ---    0.11911   0.13052   0.13052   0.13178   0.19373
     Eigenvalues ---    0.19373   0.30156   0.35994   0.35994   0.36418
     Eigenvalues ---    0.41791   0.41791   0.42437
 RFO step:  Lambda=-8.60153192D-05 EMin= 1.89371640D-03
 Linear search not attempted -- first point.
 Iteration  1 RMS(Cart)=  0.00333874 RMS(Int)=  0.00000121
 Iteration  2 RMS(Cart)=  0.00000131 RMS(Int)=  0.00000013
 Iteration  3 RMS(Cart)=  0.00000000 RMS(Int)=  0.00000013
 ClnCor:  largest displacement from symmetrization is 2.37D-08 for atom     4.
 Variable       Old X    -DE/DX   Delta X   Delta X   Delta X     New X
                                 (Linear)    (Quad)   (Total)
    R1        2.05946   0.00253   0.00000   0.00697   0.00697   2.06643
    R2        2.05946   0.00253   0.00000   0.00697   0.00697   2.06643
    R3        2.05946   0.00253   0.00000   0.00697   0.00697   2.06643
    R4        2.86675  -0.00204   0.00000  -0.00732  -0.00732   2.85942
    R5        1.94289  -0.00155   0.00000  -0.00359  -0.00359   1.93930
    R6        1.94289  -0.00155   0.00000  -0.00359  -0.00359   1.93930
    R7        1.94289  -0.00155   0.00000  -0.00359  -0.00359   1.93930
    A1        1.93261   0.00034   0.00000   0.00065   0.00065   1.93326
    A2        1.93261   0.00034   0.00000   0.00065   0.00065   1.93326
    A3        1.88811  -0.00036   0.00000  -0.00069  -0.00069   1.88742
    A4        1.93261   0.00034   0.00000   0.00065   0.00065   1.93326
    A5        1.88811  -0.00036   0.00000  -0.00069  -0.00069   1.88742
    A6        1.88811  -0.00036   0.00000  -0.00069  -0.00069   1.88742
    A7        1.94749  -0.00009   0.00000  -0.00026  -0.00026   1.94723
    A8        1.94749  -0.00009   0.00000  -0.00026  -0.00026   1.94723
    A9        1.94749  -0.00009   0.00000  -0.00026  -0.00026   1.94723
   A10        1.87238   0.00010   0.00000   0.00028   0.00028   1.87266
   A11        1.87238   0.00010   0.00000   0.00028   0.00028   1.87266
   A12        1.87238   0.00010   0.00000   0.00028   0.00028   1.87266
    D1        3.14146   0.00000   0.00000   0.00015   0.00015  -3.14158
    D2       -1.04733   0.00000   0.00000   0.00015   0.00015  -1.04718
    D3        1.04707   0.00000   0.00000   0.00015   0.00015   1.04721
    D4       -1.04733   0.00000   0.00000   0.00015   0.00015  -1.04718
    D5        1.04707   0.00000   0.00000   0.00015   0.00015   1.04721
    D6        3.14146   0.00000   0.00000   0.00015   0.00015  -3.14158
    D7        1.04707   0.00000   0.00000   0.00015   0.00015   1.04721
    D8        3.14146   0.00000   0.00000   0.00015   0.00015  -3.14158
    D9       -1.04733   0.00000   0.00000   0.00015   0.00015  -1.04718
         Item               Value     Threshold  Converged?
 Maximum Force            0.002526     0.000002     NO 
 RMS     Force            0.001057     0.000001     NO 
 Maximum Displacement     0.007026     0.000006     NO 
 RMS     Displacement     0.003340     0.000004     NO 
 Predicted change in Energy=-4.301805D-05
 GradGradGradGradGradGradGradGradGradGradGradGradGradGradGradGradGradGrad

 Leave Link  103 at Thu Feb 26 00:40:54 2015, MaxMem= 1073741824 cpu:       0.0
 (Enter /apps/gaussian/g09_c01/g09/l202.exe)
                          Input orientation:                          
 ---------------------------------------------------------------------
 Center     Atomic      Atomic             Coordinates (Angstroms)
 Number     Number       Type             X           Y           Z
 ---------------------------------------------------------------------
      1          6           0        0.000000    0.000000   -0.801999
      2          1           0       -0.096289   -1.034682   -1.142474
      3          1           0       -0.847916    0.600730   -1.142474
      4          1           0        0.944205    0.433952   -1.142474
      5          7           0        0.000000    0.000000    0.711143
      6          1           0        0.088420    0.950276    1.088392
      7          1           0       -0.867173   -0.398564    1.088392
      8          1           0        0.778753   -0.551711    1.088392
 ---------------------------------------------------------------------
                    Distance matrix (angstroms):
                    1          2          3          4          5
     1  C    0.000000
     2  H    1.093509   0.000000
     3  H    1.093509   1.799865   0.000000
     4  H    1.093509   1.799865   1.799865   0.000000
     5  N    1.513142   2.125026   2.125026   2.125026   0.000000
     6  H    2.117645   2.991812   2.444519   2.444529   1.026235
     7  H    2.117645   2.444519   2.444529   2.991812   1.026235
     8  H    2.117645   2.444529   2.991812   2.444519   1.026235
                    6          7          8
     6  H    0.000000
     7  H    1.653035   0.000000
     8  H    1.653035   1.653035   0.000000
 Stoichiometry    CH6N(1+)
 Framework group  C3[C3(CN),X(H6)]
 Deg. of freedom     6
 Full point group                 C3      NOp   3
 RotChk:  IX=0 Diff= 0.00D+00
 Largest Abelian subgroup         C1      NOp   1
 Largest concise Abelian subgroup C1      NOp   1
                         Standard orientation:                         
 ---------------------------------------------------------------------
 Center     Atomic      Atomic             Coordinates (Angstroms)
 Number     Number       Type             X           Y           Z
 ---------------------------------------------------------------------
      1          6           0        0.000000    0.000000   -0.802197
      2          1           0        1.034682   -0.096289   -1.142672
      3          1           0       -0.600730   -0.847916   -1.142672
      4          1           0       -0.433952    0.944205   -1.142672
      5          7           0        0.000000    0.000000    0.710945
      6          1           0       -0.950276    0.088420    1.088194
      7          1           0        0.398564   -0.867173    1.088194
      8          1           0        0.551711    0.778753    1.088194
 ---------------------------------------------------------------------
 Rotational constants (GHZ):     83.9671353     19.9466166     19.9466166
 Leave Link  202 at Thu Feb 26 00:40:54 2015, MaxMem= 1073741824 cpu:       0.0
 (Enter /apps/gaussian/g09_c01/g09/l301.exe)
 Standard basis: Aug-CC-pVDZ (5D, 7F)
 Ernie: Thresh=  0.10000D-02 Tol=  0.10000D-05 Strict=F.
 Ernie:  4 primitive shells out of 92 were deleted.
 There are   100 symmetry adapted basis functions of A   symmetry.
 Integral buffers will be    131072 words long.
 Raffenetti 2 integral format.
 Two-electron integral symmetry is turned on.
   100 basis functions,   152 primitive gaussians,   104 cartesian basis functions
     9 alpha electrons        9 beta electrons
       nuclear repulsion energy        47.6269091704 Hartrees.
 IExCor=  402 DFT=T Ex+Corr=B3LYP ExCW=0 ScaHFX=  0.200000
 ScaDFX=  0.800000  0.720000  1.000000  0.810000 ScalE2=  1.000000  1.000000
 IRadAn=      5 IRanWt=     -1 IRanGd=            0 ICorTp=0
 NAtoms=    8 NActive=    8 NUniq=    4 SFac= 4.00D+00 NAtFMM=   60 NAOKFM=F Big=F
 Leave Link  301 at Thu Feb 26 00:40:54 2015, MaxMem= 1073741824 cpu:       0.3
 (Enter /apps/gaussian/g09_c01/g09/l302.exe)
 NPDir=0 NMtPBC=     1 NCelOv=     1 NCel=       1 NClECP=     1 NCelD=      1
         NCelK=      1 NCelE2=     1 NClLst=     1 CellRange=     0.0.
 One-electron integrals computed using PRISM.
 NBasis=   100 RedAO= T  NBF=   100
 NBsUse=   100 1.00D-06 NBFU=   100
 Precomputing XC quadrature grid using
 IXCGrd= 2 IRadAn=           5 IRanWt=          -1 IRanGd=           0 AccXCQ= 0.00D+00.
 NRdTot=     685 NPtTot=      183098 NUsed=      188010 NTot=      188042
 NSgBfM=   104   104   104   104   104 NAtAll=     8     8.
 Leave Link  302 at Thu Feb 26 00:40:54 2015, MaxMem= 1073741824 cpu:       1.1
 (Enter /apps/gaussian/g09_c01/g09/l303.exe)
 DipDrv:  MaxL=1.
 Leave Link  303 at Thu Feb 26 00:40:54 2015, MaxMem= 1073741824 cpu:       0.2
 (Enter /apps/gaussian/g09_c01/g09/l401.exe)
 Initial guess read from the read-write file.
 B after Tr=     0.000000    0.000000    0.000000
         Rot=    1.000000    0.000000    0.000000    0.000000 Ang=   0.00 deg.
 Guess basis will be translated and rotated to current coordinates.
 Initial guess orbital symmetries:
       Occupied  (A) (A) (A) (A) (E) (E) (A) (E) (E)
       Virtual   (A) (A) (E) (E) (E) (E) (A) (A) (E) (E) (E) (E)
                 (A) (A) (E) (E) (E) (E) (A) (E) (E) (A) (A) (E)
                 (E) (A) (A) (E) (E) (E) (E) (A) (E) (E) (A) (A)
                 (E) (E) (A) (E) (E) (A) (E) (E) (E) (E) (A) (E)
                 (E) (E) (E) (A) (A) (A) (E) (E) (E) (E) (E) (E)
                 (A) (A) (A) (E) (E) (A) (E) (E) (A) (E) (E) (A)
                 (E) (E) (E) (E) (A) (E) (E) (E) (E) (A) (A) (E)
                 (E) (A) (E) (E) (A) (E) (E)
 The electronic state of the initial guess is 1-A.
 Leave Link  401 at Thu Feb 26 00:40:54 2015, MaxMem= 1073741824 cpu:       0.6
 (Enter /apps/gaussian/g09_c01/g09/l502.exe)
 Closed shell SCF:
 Requested convergence on RMS density matrix=1.00D-08 within 128 cycles.
 Requested convergence on MAX density matrix=1.00D-06.
 Requested convergence on             energy=1.00D-06.
 No special actions if energy rises.
 Using DIIS extrapolation, IDIIS=  1040.
 Integral symmetry usage will be decided dynamically.
       187925 words used for storage of precomputed grid.
 Keep R1 ints in memory in canonical form, NReq=16077209.
 IEnd=      240235 IEndB=      240235 NGot=  1073741824 MDV=  1058620592
 LenX=  1058620592 LenY=  1058609335
 Symmetry not used in FoFDir.
 MinBra= 0 MaxBra= 2 Meth= 1.
 IRaf=       0 NMat=   1 IRICut=       1 DoRegI=T DoRafI=F ISym2E= 0 JSym2E=0.

 Cycle   1  Pass 1  IDiag  1:
 E= -96.2272268139700    
 DIIS: error= 2.47D-04 at cycle   1 NSaved=   1.
 NSaved= 1 IEnMin= 1 EnMin= -96.2272268139700     IErMin= 1 ErrMin= 2.47D-04
 ErrMax= 2.47D-04 EMaxC= 1.00D-01 BMatC= 8.96D-06 BMatP= 8.96D-06
 IDIUse=3 WtCom= 9.98D-01 WtEn= 2.47D-03
 Coeff-Com:  0.100D+01
 Coeff-En:   0.100D+01
 Coeff:      0.100D+01
 Gap=     0.409 Goal=   None    Shift=    0.000
 DSYEVD returned Info=         201 IAlg= 4 N=   100 NDim=   100 NE2=    10586092 trying DSYEV.
 RMSDP=1.67D-04 MaxDP=4.26D-03              OVMax= 1.04D-03

 Cycle   2  Pass 1  IDiag  1:
 E= -96.2272362982882     Delta-E=       -0.000009484318 Rises=F Damp=F
 DIIS: error= 8.02D-05 at cycle   2 NSaved=   2.
 NSaved= 2 IEnMin= 2 EnMin= -96.2272362982882     IErMin= 2 ErrMin= 8.02D-05
 ErrMax= 8.02D-05 EMaxC= 1.00D-01 BMatC= 5.08D-07 BMatP= 8.96D-06
 IDIUse=1 WtCom= 1.00D+00 WtEn= 0.00D+00
 Coeff-Com:  0.749D-01 0.925D+00
 Coeff:      0.749D-01 0.925D+00
 Gap=     0.409 Goal=   None    Shift=    0.000
 DSYEVD returned Info=         201 IAlg= 4 N=   100 NDim=   100 NE2=    10586092 trying DSYEV.
 RMSDP=1.29D-05 MaxDP=3.89D-04 DE=-9.48D-06 OVMax= 3.90D-04

 Cycle   3  Pass 1  IDiag  1:
 E= -96.2272363880949     Delta-E=       -0.000000089807 Rises=F Damp=F
 DIIS: error= 7.45D-05 at cycle   3 NSaved=   3.
 NSaved= 3 IEnMin= 3 EnMin= -96.2272363880949     IErMin= 3 ErrMin= 7.45D-05
 ErrMax= 7.45D-05 EMaxC= 1.00D-01 BMatC= 4.00D-07 BMatP= 5.08D-07
 IDIUse=1 WtCom= 1.00D+00 WtEn= 0.00D+00
 Coeff-Com: -0.115D-01 0.471D+00 0.541D+00
 Coeff:     -0.115D-01 0.471D+00 0.541D+00
 Gap=     0.409 Goal=   None    Shift=    0.000
 DSYEVD returned Info=         201 IAlg= 4 N=   100 NDim=   100 NE2=    10586092 trying DSYEV.
 RMSDP=5.16D-06 MaxDP=1.70D-04 DE=-8.98D-08 OVMax= 1.89D-04

 Cycle   4  Pass 1  IDiag  1:
 E= -96.2272367874120     Delta-E=       -0.000000399317 Rises=F Damp=F
 DIIS: error= 3.61D-06 at cycle   4 NSaved=   4.
 NSaved= 4 IEnMin= 4 EnMin= -96.2272367874120     IErMin= 4 ErrMin= 3.61D-06
 ErrMax= 3.61D-06 EMaxC= 1.00D-01 BMatC= 1.28D-09 BMatP= 4.00D-07
 IDIUse=1 WtCom= 1.00D+00 WtEn= 0.00D+00
 Coeff-Com: -0.324D-02 0.646D-01 0.110D+00 0.829D+00
 Coeff:     -0.324D-02 0.646D-01 0.110D+00 0.829D+00
 Gap=     0.409 Goal=   None    Shift=    0.000
 DSYEVD returned Info=         201 IAlg= 4 N=   100 NDim=   100 NE2=    10586092 trying DSYEV.
 RMSDP=4.45D-07 MaxDP=9.50D-06 DE=-3.99D-07 OVMax= 1.25D-05

 Cycle   5  Pass 1  IDiag  1:
 E= -96.2272367887732     Delta-E=       -0.000000001361 Rises=F Damp=F
 DIIS: error= 8.55D-07 at cycle   5 NSaved=   5.
 NSaved= 5 IEnMin= 5 EnMin= -96.2272367887732     IErMin= 5 ErrMin= 8.55D-07
 ErrMax= 8.55D-07 EMaxC= 1.00D-01 BMatC= 7.92D-11 BMatP= 1.28D-09
 IDIUse=1 WtCom= 1.00D+00 WtEn= 0.00D+00
 Coeff-Com: -0.741D-03 0.500D-02 0.187D-01 0.277D+00 0.700D+00
 Coeff:     -0.741D-03 0.500D-02 0.187D-01 0.277D+00 0.700D+00
 Gap=     0.409 Goal=   None    Shift=    0.000
 DSYEVD returned Info=         201 IAlg= 4 N=   100 NDim=   100 NE2=    10586092 trying DSYEV.
 RMSDP=7.64D-08 MaxDP=2.69D-06 DE=-1.36D-09 OVMax= 2.72D-06

 Cycle   6  Pass 1  IDiag  1:
 E= -96.2272367888211     Delta-E=       -0.000000000048 Rises=F Damp=F
 DIIS: error= 5.67D-07 at cycle   6 NSaved=   6.
 NSaved= 6 IEnMin= 6 EnMin= -96.2272367888211     IErMin= 6 ErrMin= 5.67D-07
 ErrMax= 5.67D-07 EMaxC= 1.00D-01 BMatC= 1.80D-11 BMatP= 7.92D-11
 IDIUse=1 WtCom= 1.00D+00 WtEn= 0.00D+00
 Coeff-Com: -0.803D-04-0.217D-02 0.108D-02 0.729D-01 0.374D+00 0.554D+00
 Coeff:     -0.803D-04-0.217D-02 0.108D-02 0.729D-01 0.374D+00 0.554D+00
 Gap=     0.409 Goal=   None    Shift=    0.000
 DSYEVD returned Info=         201 IAlg= 4 N=   100 NDim=   100 NE2=    10586092 trying DSYEV.
 RMSDP=3.28D-08 MaxDP=1.07D-06 DE=-4.79D-11 OVMax= 1.63D-06

 Cycle   7  Pass 1  IDiag  1:
 E= -96.2272367888377     Delta-E=       -0.000000000017 Rises=F Damp=F
 DIIS: error= 5.42D-08 at cycle   7 NSaved=   7.
 NSaved= 7 IEnMin= 7 EnMin= -96.2272367888377     IErMin= 7 ErrMin= 5.42D-08
 ErrMax= 5.42D-08 EMaxC= 1.00D-01 BMatC= 1.83D-13 BMatP= 1.80D-11
 IDIUse=1 WtCom= 1.00D+00 WtEn= 0.00D+00
 Coeff-Com:  0.187D-04-0.717D-03-0.814D-03 0.122D-02 0.392D-01 0.130D+00
 Coeff-Com:  0.831D+00
 Coeff:      0.187D-04-0.717D-03-0.814D-03 0.122D-02 0.392D-01 0.130D+00
 Coeff:      0.831D+00
 Gap=     0.409 Goal=   None    Shift=    0.000
 DSYEVD returned Info=         201 IAlg= 4 N=   100 NDim=   100 NE2=    10586092 trying DSYEV.
 RMSDP=4.11D-09 MaxDP=7.37D-08 DE=-1.67D-11 OVMax= 1.05D-07

 SCF Done:  E(RB3LYP) =  -96.2272367888     A.U. after    7 cycles
             Convg  =    0.4108D-08             -V/T =  2.0078
 KE= 9.547814154807D+01 PE=-3.131082069658D+02 EE= 7.377591945853D+01
 Leave Link  502 at Thu Feb 26 00:40:56 2015, MaxMem= 1073741824 cpu:      12.0
 (Enter /apps/gaussian/g09_c01/g09/l801.exe)
 Range of M.O.s used for correlation:     1   100
 NBasis=   100 NAE=     9 NBE=     9 NFC=     0 NFV=     0
 NROrb=    100 NOA=     9 NOB=     9 NVA=    91 NVB=    91

 **** Warning!!: The largest alpha MO coefficient is  0.22426771D+02

 Leave Link  801 at Thu Feb 26 00:40:56 2015, MaxMem= 1073741824 cpu:       0.1
 (Enter /apps/gaussian/g09_c01/g09/l1002.exe)
 Minotr:  Closed shell wavefunction.
          Direct CPHF calculation.
          Differentiating once with respect to electric field.
                with respect to dipole field.
          Electric field/nuclear overlap derivatives assumed to be zero.
          Using symmetry in CPHF.
          Requested convergence is 1.0D-08 RMS, and 1.0D-07 maximum.
          Secondary convergence is 1.0D-12 RMS, and 1.0D-12 maximum.
          NewPWx=F KeepS1=T KeepF1=T KeepIn=T MapXYZ=F SortEE=F KeepMc=T.
          MDV=    1073741756 using IRadAn=       1.
 Generate precomputed XC quadrature information.
          Keep R1 ints in memory in canonical form, NReq=15731880.
 Symmetry not used in FoFDir.
 MinBra= 0 MaxBra= 2 Meth= 1.
 IRaf=       0 NMat=   1 IRICut=       1 DoRegI=T DoRafI=F ISym2E= 0 JSym2E=0.
          Solving linear equations simultaneously, MaxMat=       0.
          There are     3 degrees of freedom in the 1st order CPHF.  IDoFFX=0.
      3 vectors produced by pass  0 Test12= 2.73D-14 3.33D-08 XBig12= 1.08D+01 1.37D+00.
 AX will form     3 AO Fock derivatives at one time.
      3 vectors produced by pass  1 Test12= 2.73D-14 3.33D-08 XBig12= 6.53D-01 3.45D-01.
      3 vectors produced by pass  2 Test12= 2.73D-14 3.33D-08 XBig12= 1.55D-01 1.12D-01.
      3 vectors produced by pass  3 Test12= 2.73D-14 3.33D-08 XBig12= 7.86D-03 2.17D-02.
      3 vectors produced by pass  4 Test12= 2.73D-14 3.33D-08 XBig12= 1.65D-03 9.39D-03.
      3 vectors produced by pass  5 Test12= 2.73D-14 3.33D-08 XBig12= 5.45D-05 1.97D-03.
      3 vectors produced by pass  6 Test12= 2.73D-14 3.33D-08 XBig12= 1.80D-06 3.68D-04.
      3 vectors produced by pass  7 Test12= 2.73D-14 3.33D-08 XBig12= 2.66D-08 6.27D-05.
      1 vectors produced by pass  8 Test12= 2.73D-14 3.33D-08 XBig12= 6.57D-11 2.24D-06.
      1 vectors produced by pass  9 Test12= 2.73D-14 3.33D-08 XBig12= 1.45D-13 1.23D-07.
 Inverted reduced A of dimension    26 with in-core refinement.
 End of Minotr Frequency-dependent properties file   721 does not exist.
 End of Minotr Frequency-dependent properties file   722 does not exist.
 Leave Link 1002 at Thu Feb 26 00:41:00 2015, MaxMem= 1073741824 cpu:      31.9
 (Enter /apps/gaussian/g09_c01/g09/l1101.exe)
 Using compressed storage, NAtomX=     8.
 Will process   9 centers per pass.
 Leave Link 1101 at Thu Feb 26 00:41:00 2015, MaxMem= 1073741824 cpu:       1.0
 (Enter /apps/gaussian/g09_c01/g09/l1102.exe)
 Symmetrizing basis deriv contribution to polar:
 IMax=3 JMax=2 DiffMx= 0.00D+00
 Leave Link 1102 at Thu Feb 26 00:41:00 2015, MaxMem= 1073741824 cpu:       0.1
 (Enter /apps/gaussian/g09_c01/g09/l1110.exe)
 Forming Gx(P) for the SCF density, NAtomX=     8.
 Integral derivatives from FoFDir/FoFCou, PRISM(SPDF).
 Do as many integral derivatives as possible in FoFDir.
 G2DrvN: MDV=    1073741656.
 G2DrvN: will do     9 centers at a time, making    1 passes doing MaxLOS=2.
 Calling FoFCou, ICntrl=  3107 FMM=F I1Cent=   0 AccDes= 0.00D+00.
 FoFCou: FMM=F IPFlag=           0 FMFlag=      100000 FMFlg1=           0
         NFxFlg=           0 DoJE=F BraDBF=F KetDBF=F FulRan=T
         Omega=  0.000000  0.000000  1.000000  0.000000  0.000000 ICntrl=    3107 IOpCl=  0
         NMat0=    1 NMatS0=    1 NMatT0=    0 NMatD0=    4 NMtDS0=    3 NMtDT0=    0
         I1Cent=           0 NGrid=           0.
 Petite list used in FoFCou.
 FoFDir/FoFCou used for L=0 through L=2.
 End of G2Drv Frequency-dependent properties file   721 does not exist.
 End of G2Drv Frequency-dependent properties file   722 does not exist.
 Leave Link 1110 at Thu Feb 26 00:41:07 2015, MaxMem= 1073741824 cpu:      54.0
 (Enter /apps/gaussian/g09_c01/g09/l1002.exe)
 Minotr:  Closed shell wavefunction.
          IDoAtm=11111111
          Direct CPHF calculation.
          Differentiating once with respect to electric field.
                with respect to dipole field.
          Differentiating once with respect to nuclear coordinates.
          Using symmetry in CPHF.
          Requested convergence is 1.0D-08 RMS, and 1.0D-07 maximum.
          Secondary convergence is 1.0D-12 RMS, and 1.0D-12 maximum.
          NewPWx=T KeepS1=F KeepF1=F KeepIn=T MapXYZ=F SortEE=F KeepMc=T.
          MDV=    1073741740 using IRadAn=       1.
 Generate precomputed XC quadrature information.
          Keep R1 ints in memory in canonical form, NReq=15732048.
 Symmetry not used in FoFDir.
 MinBra= 0 MaxBra= 2 Meth= 1.
 IRaf=       0 NMat=   1 IRICut=       1 DoRegI=T DoRafI=F ISym2E= 0 JSym2E=0.
          Solving linear equations simultaneously, MaxMat=       0.
          There are    15 degrees of freedom in the 1st order CPHF.  IDoFFX=4.
 Will reuse    3 saved solutions.
     12 vectors produced by pass  0 Test12= 5.46D-15 6.67D-09 XBig12= 8.81D-02 1.06D-01.
 AX will form    12 AO Fock derivatives at one time.
     12 vectors produced by pass  1 Test12= 5.46D-15 6.67D-09 XBig12= 1.16D-02 4.46D-02.
     12 vectors produced by pass  2 Test12= 5.46D-15 6.67D-09 XBig12= 5.98D-04 7.78D-03.
     12 vectors produced by pass  3 Test12= 5.46D-15 6.67D-09 XBig12= 4.37D-06 4.14D-04.
     12 vectors produced by pass  4 Test12= 5.46D-15 6.67D-09 XBig12= 1.07D-08 2.54D-05.
     11 vectors produced by pass  5 Test12= 5.46D-15 6.67D-09 XBig12= 1.33D-11 6.32D-07.
      1 vectors produced by pass  6 Test12= 5.46D-15 6.67D-09 XBig12= 1.10D-14 1.98D-08.
 Inverted reduced A of dimension    72 with in-core refinement.
 FullF1:  Do perturbations    1 to    15.
 Isotropic polarizability for W=    0.000000       20.56 Bohr**3.
 FullF1:  Do perturbations    1 to     6.
 End of Minotr Frequency-dependent properties file   721 does not exist.
 End of Minotr Frequency-dependent properties file   722 does not exist.
 Leave Link 1002 at Thu Feb 26 00:41:14 2015, MaxMem= 1073741824 cpu:      57.1
 (Enter /apps/gaussian/g09_c01/g09/l701.exe)
 Compute integral second derivatives.
 ... and contract with generalized density number  0.
 Leave Link  701 at Thu Feb 26 00:41:14 2015, MaxMem= 1073741824 cpu:       1.2
 (Enter /apps/gaussian/g09_c01/g09/l702.exe)
 L702 exits ... SP integral derivatives will be done elsewhere.
 Leave Link  702 at Thu Feb 26 00:41:14 2015, MaxMem= 1073741824 cpu:       0.1
 (Enter /apps/gaussian/g09_c01/g09/l703.exe)
 Compute integral second derivatives, UseDBF=F ICtDFT=           0.
 Integral derivatives from FoFDir, PRISM(SPDF).
 Calling FoFJK, ICntrl=    100127 FMM=F ISym2X=1 I1Cent= 0 IOpClX= 0 NMat=1 NMatS=1 NMatT=0.
 FoFCou: FMM=F IPFlag=           0 FMFlag=      100000 FMFlg1=         800
         NFxFlg=           0 DoJE=F BraDBF=F KetDBF=F FulRan=T
         Omega=  0.000000  0.000000  1.000000  0.000000  0.000000 ICntrl=  100127 IOpCl=  0
         NMat0=    1 NMatS0=    1 NMatT0=    0 NMatD0=    1 NMtDS0=    0 NMtDT0=    0
         I1Cent=           0 NGrid=           0.
 Petite list used in FoFCou.
 Leave Link  703 at Thu Feb 26 00:41:20 2015, MaxMem= 1073741824 cpu:      45.5
 (Enter /apps/gaussian/g09_c01/g09/l716.exe)
 Dipole        =-3.14288526D-15-4.54844495D-15 8.51726612D-01
 Polarizability= 1.95220829D+01 2.11250420D-05 1.95221087D+01
                 2.12225202D-05 4.24577006D-05 2.26238344D+01
 HyperPolar    = 1.76856630D+00-5.06972327D-01-1.76941983D+00
                 5.03297160D-01-2.93693691D+00-8.39364040D-04
                -2.93811643D+00-1.72909262D-03-6.21500435D-04
                 6.96099713D+00
 ***** Axes restored to original set *****
 -------------------------------------------------------------------
 Center     Atomic                   Forces (Hartrees/Bohr)
 Number     Number              X              Y              Z
 -------------------------------------------------------------------
      1        6           0.000000000    0.000000000    0.000006132
      2        1          -0.000002385   -0.000026510   -0.000008600
      3        1          -0.000021766    0.000015321   -0.000008600
      4        1           0.000024151    0.000011190   -0.000008600
      5        7           0.000000000    0.000000000    0.000007887
      6        1           0.000000679    0.000008358    0.000003927
      7        1          -0.000007577   -0.000003591    0.000003927
      8        1           0.000006898   -0.000004767    0.000003927
 -------------------------------------------------------------------
 Cartesian Forces:  Max     0.000026510 RMS     0.000010615
 Force constants in Cartesian coordinates: 
                1             2             3             4             5 
      1  0.628163D+00
      2  0.000000D+00  0.628163D+00
      3  0.000000D+00  0.000000D+00  0.402775D+00
      4 -0.513564D-01 -0.243641D-01 -0.784665D-02  0.472447D-01
      5 -0.243637D-01 -0.310892D+00 -0.842677D-01  0.258771D-01  0.322901D+00
      6 -0.639450D-02 -0.686649D-01 -0.704322D-01  0.801830D-02  0.861180D-01
      7 -0.224908D+00  0.124564D+00 -0.690548D-01  0.417979D-02 -0.343313D-02
      8  0.124564D+00 -0.137340D+00  0.489291D-01  0.223646D-01 -0.120660D-01
      9 -0.562684D-01  0.398702D-01 -0.704321D-01  0.877638D-02 -0.426005D-02
     10 -0.267108D+00 -0.100200D+00  0.769012D-01  0.193040D-03  0.113138D-02
     11 -0.100200D+00 -0.951406D-01  0.353383D-01 -0.246664D-01 -0.807923D-02
     12  0.626625D-01  0.287944D-01 -0.704318D-01 -0.941165D-02 -0.256735D-02
     13 -0.944179D-01  0.000000D+00  0.000000D+00 -0.917434D-03  0.693803D-03
     14  0.000000D+00 -0.944178D-01  0.000000D+00  0.693969D-03  0.647360D-02
     15  0.000000D+00  0.000000D+00 -0.156628D+00  0.385066D-03  0.413751D-02
     16 -0.100798D-05  0.602410D-03 -0.192144D-03  0.431010D-03  0.512254D-04
     17  0.602554D-03  0.641927D-02 -0.206520D-02  0.511843D-04  0.976457D-03
     18 -0.305171D-02 -0.328014D-01 -0.116175D-01  0.198313D-03  0.213051D-02
     19  0.533593D-02  0.247870D-02  0.188453D-02  0.208011D-03  0.282870D-03
     20  0.247880D-02  0.108231D-02  0.866140D-03  0.775517D-03  0.247672D-03
     21  0.299329D-01  0.137579D-01 -0.116172D-01  0.334582D-03 -0.682150D-03
     22  0.429247D-02 -0.308137D-02 -0.169249D-02  0.173860D-04 -0.239608D-03
     23 -0.308134D-02  0.212584D-02  0.119883D-02 -0.732222D-03  0.438209D-03
     24 -0.268808D-01  0.190435D-01 -0.116173D-01 -0.454396D-03 -0.608711D-03
                6             7             8             9            10 
      6  0.859801D-01
      7  0.248243D-02  0.231577D+00
      8  0.943440D-02 -0.132301D+00  0.138569D+00
      9  0.487532D-02  0.705712D-01 -0.500030D-01  0.859801D-01
     10 -0.698880D-03 -0.162021D-01 -0.105971D-01  0.692922D-02  0.276397D+00
     11  0.973059D-02  0.152006D-01  0.831593D-02 -0.686705D-02  0.106424D+00
     12  0.487532D-02 -0.807750D-02 -0.547054D-02  0.487532D-02 -0.785895D-01
     13 -0.340729D-02  0.402502D-02 -0.354739D-02 -0.300090D-01  0.522673D-02
     14 -0.366187D-01 -0.354725D-02  0.153122D-02  0.212601D-01  0.285347D-02
     15 -0.209000D-01  0.339049D-02 -0.240221D-02 -0.208999D-01 -0.377566D-02
     16  0.178033D-03 -0.220539D-03 -0.528094D-03 -0.731147D-03 -0.878110D-04
     17  0.191332D-02 -0.354469D-04  0.676221D-03  0.629598D-03  0.178872D-03
     18 -0.660192D-02 -0.758050D-03  0.513184D-04  0.110149D-02  0.754357D-03
     19 -0.179674D-03  0.753818D-03  0.307043D-03 -0.836202D-03  0.884440D-03
     20 -0.947991D-03 -0.185572D-03 -0.298223D-03  0.481045D-03  0.210562D-03
     21  0.110149D-02 -0.299961D-03  0.697873D-03  0.110185D-02 -0.194423D-02
     22  0.150340D-05  0.795750D-03 -0.261767D-03  0.156796D-02  0.696052D-03
     23 -0.964695D-03 -0.261808D-03  0.611716D-03 -0.111084D-02 -0.109979D-05
     24  0.110185D-02  0.174592D-02 -0.123700D-02 -0.660192D-02  0.423468D-03
               11            12            13            14            15 
     11  0.937485D-01
     12 -0.361149D-01  0.859801D-01
     13  0.285346D-02  0.334162D-01  0.717699D+00
     14  0.329424D-03  0.153585D-01  0.000000D+00  0.717700D+00
     15 -0.173540D-02 -0.208997D-01  0.000000D+00  0.000000D+00  0.514368D+00
     16  0.671486D-03  0.834698D-03 -0.635153D-01 -0.275943D-01 -0.102762D-01
     17  0.543406D-03  0.483649D-03 -0.275944D-01 -0.357562D+00 -0.110462D+00
     18 -0.891627D-04  0.110185D-02 -0.108824D-01 -0.116978D+00 -0.983470D-01
     19  0.210603D-03 -0.174600D-02 -0.307948D+00 -0.113529D+00  0.100801D+00
     20  0.523027D-03 -0.802478D-03 -0.113529D+00 -0.113130D+00  0.463315D-01
     21 -0.893510D-03 -0.660192D-02  0.106746D+00  0.490643D-01 -0.983468D-01
     22 -0.493747D-03  0.910821D-03 -0.260153D+00  0.141123D+00 -0.905250D-01
     23 -0.240369D-03  0.318393D-03  0.141123D+00 -0.160924D+00  0.641307D-01
     24  0.630831D-03  0.110149D-02 -0.958644D-01  0.679131D-01 -0.983468D-01
               16            17            18            19            20 
     16  0.588428D-01
     17  0.298063D-01  0.376454D+00
     18  0.111664D-01  0.120034D+00  0.103708D+00
     19 -0.330369D-03  0.442592D-03 -0.614407D-03  0.322864D+00
     20 -0.312146D-01 -0.111477D-01  0.140032D-01  0.122626D+00  0.112433D+00
     21 -0.134139D-01 -0.406401D-02  0.532767D-02 -0.109536D+00 -0.503468D-01
     22  0.488127D-02 -0.345154D-02  0.318741D-02 -0.217681D-01  0.188375D-01
     23  0.282056D-01 -0.163594D-01  0.136488D-01 -0.128196D-01  0.102900D-01
     24  0.124343D-01 -0.646949D-02  0.532767D-02  0.102265D-01 -0.958476D-02
               21            22            23            24 
     21  0.103708D+00
     22 -0.118199D-01  0.271238D+00
     23 -0.753367D-02 -0.152433D+00  0.164058D+00
[...]
      5        7           0.000000000    0.000000000    0.000000072
      6        1          -0.000000079    0.000000056    0.000000018
      7        1          -0.000000009   -0.000000097    0.000000018
      8        1           0.000000088    0.000000040    0.000000018
 -------------------------------------------------------------------
 Cartesian Forces:  Max     0.000000117 RMS     0.000000059
 Force constants in Cartesian coordinates: 
                1             2             3             4             5 
      1  0.628065D+00
      2  0.000000D+00  0.628066D+00
      3  0.000000D+00  0.000000D+00  0.402711D+00
      4 -0.513638D-01 -0.243573D-01 -0.784418D-02  0.472525D-01
      5 -0.243569D-01 -0.310821D+00 -0.842391D-01  0.258702D-01  0.322829D+00
      6 -0.639208D-02 -0.686375D-01 -0.704295D-01  0.801578D-02  0.860892D-01
      7 -0.224863D+00  0.124527D+00 -0.690313D-01  0.417945D-02 -0.343274D-02
      8  0.124527D+00 -0.137322D+00  0.489127D-01  0.223620D-01 -0.120646D-01
      9 -0.562459D-01  0.398544D-01 -0.704294D-01  0.877521D-02 -0.425947D-02
     10 -0.267050D+00 -0.100170D+00  0.768752D-01  0.193068D-03  0.113120D-02
     11 -0.100170D+00 -0.951343D-01  0.353261D-01 -0.246636D-01 -0.807818D-02
     12  0.626376D-01  0.287828D-01 -0.704291D-01 -0.941040D-02 -0.256696D-02
     13 -0.944149D-01  0.000000D+00  0.000000D+00 -0.917406D-03  0.693727D-03
     14  0.000000D+00 -0.944149D-01  0.000000D+00  0.693915D-03  0.647274D-02
     15  0.000000D+00  0.000000D+00 -0.156577D+00  0.385036D-03  0.413690D-02
     16 -0.117463D-05  0.602368D-03 -0.192171D-03  0.430905D-03  0.512241D-04
     17  0.602536D-03  0.641898D-02 -0.206537D-02  0.511844D-04  0.976345D-03
     18 -0.305140D-02 -0.327986D-01 -0.116155D-01  0.198311D-03  0.213036D-02
     19  0.533564D-02  0.247865D-02  0.188469D-02  0.208002D-03  0.282841D-03
     20  0.247878D-02  0.108214D-02  0.866203D-03  0.775437D-03  0.247616D-03
     21  0.299303D-01  0.137567D-01 -0.116153D-01  0.334567D-03 -0.682163D-03
     22  0.429223D-02 -0.308131D-02 -0.169263D-02  0.173828D-04 -0.239586D-03
     23 -0.308126D-02  0.212562D-02  0.119894D-02 -0.732156D-03  0.438121D-03
     24 -0.268786D-01  0.190418D-01 -0.116154D-01 -0.454381D-03 -0.608723D-03
                6             7             8             9            10 
      6  0.859759D-01
      7  0.248214D-02  0.231530D+00
      8  0.943313D-02 -0.132263D+00  0.138551D+00
      9  0.487489D-02  0.705476D-01 -0.499865D-01  0.859759D-01
     10 -0.698792D-03 -0.162002D-01 -0.105958D-01  0.692826D-02  0.276339D+00
     11  0.972929D-02  0.151989D-01  0.831508D-02 -0.686616D-02  0.106393D+00
     12  0.487489D-02 -0.807642D-02 -0.546982D-02  0.487489D-02 -0.785634D-01
     13 -0.340698D-02  0.402445D-02 -0.354699D-02 -0.300059D-01  0.522604D-02
     14 -0.366150D-01 -0.354682D-02  0.153097D-02  0.212579D-01  0.285313D-02
     15 -0.208977D-01  0.338997D-02 -0.240187D-02 -0.208977D-01 -0.377512D-02
     16  0.178017D-03 -0.220535D-03 -0.528021D-03 -0.731101D-03 -0.878403D-04
     17  0.191331D-02 -0.354249D-04  0.676153D-03  0.629574D-03  0.178835D-03
     18 -0.660149D-02 -0.758054D-03  0.513381D-04  0.110135D-02  0.754360D-03
     19 -0.179677D-03  0.753713D-03  0.307036D-03 -0.836155D-03  0.884329D-03
     20 -0.947939D-03 -0.185535D-03 -0.298209D-03  0.481005D-03  0.210561D-03
     21  0.110135D-02 -0.299979D-03  0.697867D-03  0.110170D-02 -0.194411D-02
     22  0.151440D-05  0.795641D-03 -0.261765D-03  0.156797D-02  0.695960D-03
     23 -0.964634D-03 -0.261804D-03  0.611609D-03 -0.111082D-02 -0.111796D-05
     24  0.110170D-02  0.174579D-02 -0.123692D-02 -0.660149D-02  0.423487D-03
               11            12            13            14            15 
     11  0.937423D-01
     12 -0.361027D-01  0.859759D-01
     13  0.285310D-02  0.334128D-01  0.717665D+00
     14  0.329287D-03  0.153569D-01  0.000000D+00  0.717665D+00
     15 -0.173512D-02 -0.208975D-01  0.000000D+00  0.000000D+00  0.514303D+00
     16  0.671406D-03  0.834640D-03 -0.635171D-01 -0.275912D-01 -0.102749D-01
     17  0.543344D-03  0.483628D-03 -0.275913D-01 -0.357538D+00 -0.110451D+00
     18 -0.891443D-04  0.110170D-02 -0.108812D-01 -0.116968D+00 -0.983447D-01
     19  0.210600D-03 -0.174599D-02 -0.307928D+00 -0.113519D+00  0.100791D+00
     20  0.522921D-03 -0.802489D-03 -0.113519D+00 -0.113128D+00  0.463271D-01
     21 -0.893440D-03 -0.660149D-02  0.106738D+00  0.490607D-01 -0.983445D-01
     22 -0.493714D-03  0.910777D-03 -0.260138D+00  0.141111D+00 -0.905162D-01
     23 -0.240342D-03  0.318365D-03  0.141111D+00 -0.160917D+00  0.641241D-01
     24  0.630825D-03  0.110135D-02 -0.958569D-01  0.679074D-01 -0.983445D-01
               16            17            18            19            20 
     16  0.588450D-01
     17  0.298030D-01  0.376429D+00
     18  0.111650D-01  0.120023D+00  0.103704D+00
     19 -0.330216D-03  0.442780D-03 -0.614418D-03  0.322843D+00
     20 -0.312134D-01 -0.111473D-01  0.140027D-01  0.122617D+00  0.112431D+00
     21 -0.134134D-01 -0.406390D-02  0.532741D-02 -0.109526D+00 -0.503425D-01
     22  0.488107D-02 -0.345152D-02  0.318727D-02 -0.217671D-01  0.188368D-01
     23  0.282047D-01 -0.163586D-01  0.136483D-01 -0.128194D-01  0.102896D-01
     24  0.124339D-01 -0.646924D-02  0.532741D-02  0.102262D-01 -0.958441D-02
               21            22            23            24 
     21  0.103704D+00
     22 -0.118195D-01  0.271223D+00
     23 -0.753344D-02 -0.152420D+00  0.164051D+00
     24  0.532741D-02  0.983607D-01 -0.696809D-01  0.103704D+00
 Red2BG is reusing G-inverse.
 Force constants in internal coordinates: 
                1             2             3             4             5 
      1  0.353206D+00
      2  0.140052D-02  0.353206D+00
      3  0.140054D-02  0.140053D-02  0.353206D+00
      4  0.312651D-02  0.312656D-02  0.312658D-02  0.267312D+00
      5 -0.141535D-02  0.297755D-03  0.297519D-03  0.498906D-02  0.424391D+00
      6  0.297769D-03  0.297515D-03 -0.141531D-02  0.498907D-02  0.183422D-02
      7  0.297514D-03 -0.141533D-02  0.297744D-03  0.498902D-02  0.183422D-02
      8  0.360425D-02  0.360518D-02 -0.135704D-02 -0.264103D-01  0.552819D-04
      9  0.360517D-02 -0.135711D-02  0.360438D-02 -0.264104D-01  0.554901D-04
     10  0.116493D-02 -0.366476D-02 -0.366508D-02  0.278205D-01  0.240125D-02
     11 -0.135710D-02  0.360427D-02  0.360529D-02 -0.264104D-01  0.925754D-03
     12 -0.366497D-02  0.116489D-02 -0.366488D-02  0.278206D-01 -0.174691D-02
     13 -0.366478D-02 -0.366497D-02  0.116481D-02  0.278208D-01 -0.174622D-02
     14  0.703692D-03  0.692654D-04  0.690825D-04  0.137290D-01 -0.483060D-02
     15  0.692938D-04  0.690675D-04  0.703764D-03  0.137290D-01 -0.390406D-02
     16  0.690447D-04  0.703715D-03  0.693348D-04  0.137290D-01 -0.390410D-02
     17 -0.397932D-03 -0.108803D-03 -0.397802D-03 -0.147472D-01  0.673163D-02
     18 -0.397735D-03 -0.397937D-03 -0.108849D-03 -0.147472D-01  0.673448D-02
     19 -0.108812D-03 -0.397758D-03 -0.397990D-03 -0.147472D-01  0.109993D-03
     20  0.000000D+00 -0.286907D-02  0.286896D-02  0.000000D+00  0.191804D-05
     21  0.225389D-04 -0.291305D-02  0.289099D-02  0.000000D+00  0.260291D-02
     22 -0.214558D-04 -0.289101D-02  0.291295D-02  0.000000D+00 -0.260269D-02
     23  0.289098D-02  0.225301D-04 -0.291307D-02  0.000000D+00  0.439338D-03
     24  0.291294D-02 -0.214572D-04 -0.289104D-02  0.000000D+00  0.304033D-02
     25  0.286894D-02  0.000000D+00 -0.286908D-02  0.000000D+00 -0.216527D-02
     26 -0.289102D-02  0.291293D-02 -0.214506D-04  0.000000D+00 -0.436143D-03
     27 -0.286906D-02  0.286895D-02  0.000000D+00  0.000000D+00  0.216485D-02
     28 -0.291306D-02  0.289099D-02  0.225374D-04  0.000000D+00 -0.304075D-02
                6             7             8             9            10 
      6  0.424391D+00
      7  0.183421D-02  0.424391D+00
      8  0.925701D-03  0.554405D-04  0.518250D-01
      9  0.551794D-04  0.925728D-03  0.121529D-01  0.518250D-01
     10 -0.174687D-02 -0.174618D-02 -0.453551D-01 -0.453518D-01  0.132776D+00
     11  0.553762D-04  0.552233D-04  0.121528D-01  0.121528D-01  0.105111D-01
     12 -0.174619D-02  0.240127D-02 -0.453519D-01  0.105110D-01 -0.241488D-01
     13  0.240147D-02 -0.174683D-02  0.105110D-01 -0.453551D-01 -0.241489D-01
     14 -0.390418D-02 -0.390407D-02 -0.401278D-02 -0.401346D-02  0.169443D-01
     15 -0.483069D-02 -0.390411D-02  0.321922D-02 -0.401286D-02 -0.594034D-02
     16 -0.390413D-02 -0.483071D-02 -0.401347D-02  0.321921D-02 -0.594029D-02
     17  0.673457D-02  0.110008D-03  0.786055D-03  0.359144D-02 -0.476724D-02
     18  0.110056D-03  0.673169D-02  0.359140D-02  0.786062D-03 -0.476738D-02
     19  0.673172D-02  0.673454D-02  0.786084D-03  0.786123D-03  0.409539D-02
     20 -0.216526D-02  0.216487D-02 -0.570215D-02  0.570058D-02  0.164090D-05
     21  0.439349D-03 -0.304073D-02 -0.524343D-02  0.478359D-02  0.145842D-02
     22  0.304036D-02 -0.436126D-03 -0.478515D-02  0.524233D-02 -0.145499D-02
     23 -0.304077D-02  0.260290D-02  0.478363D-02  0.458670D-03  0.742039D-02
     24 -0.436160D-03 -0.260269D-02  0.524234D-02 -0.458325D-03  0.887717D-02
     25  0.216485D-02  0.191179D-05  0.570062D-02  0.000000D+00  0.596376D-02
     26 -0.260270D-02  0.304031D-02 -0.458357D-03 -0.478517D-02 -0.742095D-02
     27  0.190485D-05 -0.216528D-02  0.000000D+00 -0.570217D-02 -0.596417D-02
     28  0.260292D-02  0.439318D-03  0.458639D-03 -0.524343D-02 -0.887758D-02
               11            12            13            14            15 
     11  0.518249D-01
     12 -0.453551D-01  0.132776D+00
     13 -0.453517D-01 -0.241488D-01  0.132776D+00
     14  0.321920D-02 -0.594033D-02 -0.594024D-02  0.983357D-01
     15 -0.401351D-02 -0.594029D-02  0.169445D-01 -0.181812D-01  0.983359D-01
     16 -0.401290D-02  0.169443D-01 -0.594015D-02 -0.181812D-01 -0.181813D-01
     17  0.786112D-03  0.409542D-02 -0.476751D-02 -0.399445D-01 -0.399441D-01
     18  0.786119D-03 -0.476725D-02  0.409533D-02 -0.399440D-01  0.133191D-01
     19  0.359151D-02 -0.476738D-02 -0.476745D-02  0.133191D-01 -0.399445D-01
     20  0.000000D+00 -0.596420D-02  0.596381D-02  0.000000D+00 -0.251185D-02
     21  0.458646D-03 -0.887757D-02  0.742041D-02  0.395805D-02  0.144693D-02
     22 -0.458327D-03 -0.742095D-02  0.887715D-02 -0.395880D-02  0.540510D-02
     23 -0.524341D-02  0.145842D-02 -0.887763D-02  0.144692D-02 -0.540508D-02
     24 -0.478514D-02 -0.145495D-02 -0.742103D-02  0.540505D-02 -0.144630D-02
     25 -0.570212D-02  0.166588D-05 -0.596429D-02 -0.251180D-02  0.251186D-02
     26  0.524230D-02  0.887713D-02 -0.145488D-02 -0.144631D-02 -0.395885D-02
     27  0.570057D-02  0.596377D-02  0.171414D-05  0.251181D-02  0.000000D+00
     28  0.478360D-02  0.742038D-02  0.145845D-02 -0.540504D-02  0.395810D-02
               16            17            18            19            20 
     16  0.983357D-01
     17  0.133191D-01  0.530466D-01
     18 -0.399445D-01  0.922996D-02  0.530466D-01
     19 -0.399440D-01  0.922994D-02  0.922993D-02  0.530466D-01
     20  0.251189D-02 -0.702145D-02  0.702135D-02  0.000000D+00  0.141287D-01
     21 -0.540501D-02  0.590439D-02  0.558597D-03 -0.646295D-02  0.345833D-02
     22 -0.144626D-02 -0.558402D-03 -0.590451D-02  0.646288D-02  0.345854D-02
     23  0.395808D-02 -0.646291D-02  0.590439D-02  0.558615D-03  0.392776D-02
     24 -0.395882D-02  0.646293D-02 -0.558367D-03 -0.590448D-02 -0.674260D-02
     25  0.000000D+00  0.000000D+00 -0.702147D-02  0.702135D-02 -0.674240D-02
     26  0.540503D-02 -0.590446D-02  0.646294D-02 -0.558338D-03  0.392799D-02
     27 -0.251187D-02  0.702138D-02  0.000000D+00 -0.702143D-02 -0.674238D-02
     28  0.144688D-02  0.558585D-03 -0.646292D-02  0.590440D-02 -0.674217D-02
               21            22            23            24            25 
     21  0.146854D-01
     22  0.373691D-02  0.146859D-01
     23 -0.702076D-02 -0.729935D-02  0.146855D-01
     24  0.420634D-02 -0.702098D-02  0.373693D-02  0.146859D-01
     25 -0.674218D-02  0.392796D-02  0.345834D-02  0.345856D-02  0.141287D-01
     26 -0.729933D-02 -0.702095D-02  0.420634D-02 -0.702097D-02 -0.674259D-02
     27  0.392777D-02 -0.674257D-02 -0.674218D-02  0.392796D-02 -0.674238D-02
     28 -0.702075D-02  0.420636D-02 -0.702077D-02 -0.729935D-02  0.392776D-02
               26            27            28 
     26  0.146858D-01
     27  0.345853D-02  0.141287D-01
     28  0.373691D-02  0.345833D-02  0.146854D-01
 Leave Link  716 at Thu Feb 26 00:41:46 2015, MaxMem= 1073741824 cpu:       0.1
 (Enter /apps/gaussian/g09_c01/g09/l9999.exe)
 1\1\GINC-CX1-3-15-4\Freq\RB3LYP\Aug-CC-pVDZ\C1H6N1(1+)\JMF02\26-Feb-20
 15\0\\#p opt(VeryTight,CalcAll,Raman) Integral(Grid=UltraFine) b3lyp/A
 UG-cc-pVDZ\\Autjob by noodles.sh | Great noodly basis sets\\1,1\C,-0.0
 000000526,0.0000000526,-0.8020190972\H,-0.0962953765,-1.0347239947,-1.
 1424959968\H,-0.8479497016,0.600756273,-1.1424959968\H,0.9442449201,0.
 4339678796,-1.1424959968\N,-0.0000000526,0.0000000526,0.7111629355\H,0
 .0884183764,0.9502866748,1.088414391\H,-0.8671816228,-0.3985706528,1.0
 88414391\H,0.7787630885,-0.5517158641,1.088414391\\Version=EM64L-G09Re
 vC.01\State=1-A\HF=-96.2272368\RMSD=5.496e-09\RMSF=5.875e-08\ZeroPoint
 =0.078817\Thermal=0.0822841\Dipole=0.,0.,0.8517118\DipoleDeriv=0.10186
 11,0.0000015,0.0000047,-0.0000012,0.1018614,0.0000023,-0.0000046,-0.00
 00001,0.5581525,0.118199,-0.0079628,0.0007741,-0.0079588,0.0334075,0.0
 083095,0.0032889,0.0353081,0.0494051,0.0615001,0.0406945,0.006809,0.04
 06965,0.0901062,-0.0048253,0.0289351,-0.0205033,0.0494064,0.0477112,-0
 .0327368,-0.0075848,-0.0327345,0.1038962,-0.0034863,-0.0322204,-0.0148
 062,0.0494068,-0.1376063,0.0000037,0.0000025,-0.0000012,-0.137609,0.00
 00022,-0.0000011,-0.0000015,-0.3727693,0.244175,0.0047428,0.0039955,0.
 0047434,0.294715,0.0429442,0.0028998,0.0311627,0.2221312,0.2861879,0.0
 195114,-0.0391896,0.0195133,0.2527031,-0.0180119,-0.0284371,-0.0130689
 ,0.2221322,0.2779718,-0.0242551,0.0351922,-0.0242553,0.2609183,-0.0249
 326,0.0255365,-0.0180915,0.2221312\Polar=19.5232639,-0.0000211,19.5232
 381,0.0000424,-0.0000212,22.6252216\PolarDeriv=-0.9118922,-3.1870428,0
 .9108591,2.2288186,0.001147,-0.0005724,-3.1875023,0.9111914,3.1876464,
 -0.0003095,2.2291404,0.0008693,2.4639589,0.0007107,2.4641605,-0.000279
 8,0.0007653,-3.6863578,-0.2058175,-0.635015,-0.4632388,-0.8279692,-0.1
 132817,-0.2218633,-1.0154017,-0.4271746,-6.1736123,-0.1127836,-2.03112
 44,-2.3864283,-0.7748374,-0.0828955,-1.6497276,-0.1388038,-1.4968202,-
 1.4807826,-3.9845331,1.9048604,-1.9064488,-1.6329083,0.5772295,-1.9554
 787,2.1263814,-1.5950997,2.0475927,0.5778503,-1.2268135,1.3853012,-1.3
 602854,0.4205528,-1.0658547,-1.2271298,0.8689106,-1.4812366,5.024751,1
 .6461804,1.5359197,-1.8280981,-0.4648492,2.1774949,1.805365,1.1883108,
 1.2095861,-0.4643909,-1.0310974,1.0008571,-1.5027919,-0.337662,-0.9222
 734,1.3658575,0.6279152,-1.4809698,0.6321698,2.2096268,-0.6317394,-2.2
 524409,-0.0011644,-0.000241,2.2096888,-0.6318876,-2.2100756,0.0011281,
 -2.2525065,-0.0000556,-1.9517316,-0.0008705,-1.9522285,0.0002543,-0.00
 06973,2.3259681,0.1951799,0.6457278,0.3250462,0.7773781,0.1241181,0.22
 99491,0.8545616,0.3049189,4.7307592,0.1231551,2.097345,2.4698057,0.579
 1729,0.0874129,1.5044597,0.1436899,1.5445539,1.9342403,-3.9123205,-1.1
 882002,-1.1848921,1.8743435,0.5100927,-2.2539722,-1.2750355,-0.9939319
 ,-1.0667502,0.5093765,1.000364,-1.0356704,1.3483768,0.3571953,0.735145
 ,-1.4096241,-0.6474869,1.9343815,3.1621424,-1.3960742,1.4144959,1.6608
 236,-0.6332117,2.0246136,-1.5180037,1.243666,-1.7251472,-0.6339673,1.2
 146976,-1.4346493,1.1982086,-0.4443182,0.8862801,1.2659605,-0.8970573,
 1.9348703\HyperPolar=0.5035179,1.7703061,-0.5073011,-1.7693749,-2.9390
 05,0.0008644,-2.9377978,-0.0006432,0.0017465,6.9599315\PG=C03 [C3(C1N1
 ),X(H6)]\NImag=0\\0.62806546,0.00000032,0.62806567,0.00000028,0.000000
 42,0.40271069,-0.05136384,-0.02435726,-0.00784418,0.04725252,-0.024356
 85,-0.31082097,-0.08423914,0.02587020,0.32282881,-0.00639208,-0.068637
 52,-0.07042952,0.00801578,0.08608923,0.08597589,-0.22486301,0.12452668
 ,-0.06903126,0.00417945,-0.00343274,0.00248214,0.23153050,0.12452686,-
 0.13732206,0.04891272,0.02236203,-0.01206456,0.00943313,-0.13226313,0.
 13855084,-0.05624587,0.03985435,-0.07042945,0.00877521,-0.00425947,0.0
 0487489,0.07054757,-0.04998649,0.08597589,-0.26705038,-0.10016980,0.07
 687519,0.00019307,0.00113120,-0.00069879,-0.01620018,-0.01059584,0.006
 92826,0.27633899,-0.10016964,-0.09513433,0.03532613,-0.02466357,-0.008
 07818,0.00972929,0.01519892,0.00831508,-0.00686616,0.10639294,0.093742
 35,0.06263757,0.02878283,-0.07042909,-0.00941040,-0.00256696,0.0048748
 9,-0.00807642,-0.00546982,0.00487489,-0.07856335,-0.03610275,0.0859758
 9,-0.09441493,0.00000017,0.00000045,-0.00091741,0.00069373,-0.00340698
 ,0.00402445,-0.00354699,-0.03000590,0.00522604,0.00285310,0.03341278,0
 .71766517,-0.00000031,-0.09441491,0.00000061,0.00069392,0.00647274,-0.
 03661496,-0.00354682,0.00153097,0.02125794,0.00285313,0.00032929,0.015
 35688,-0.00000013,0.71766531,-0.00000016,0.00000037,-0.15657736,0.0003
 8504,0.00413690,-0.02089773,0.00338997,-0.00240187,-0.02089769,-0.0037
 7512,-0.00173512,-0.02089748,0.00000045,0.00000024,0.51430340,-0.00000
 117,0.00060237,-0.00019217,0.00043090,0.00005122,0.00017802,-0.0002205
 4,-0.00052802,-0.00073110,-0.00008784,0.00067141,0.00083464,-0.0635170
 8,-0.02759123,-0.01027492,0.05884496,0.00060254,0.00641898,-0.00206537
 ,0.00005118,0.00097634,0.00191331,-0.00003542,0.00067615,0.00062957,0.
 00017884,0.00054334,0.00048363,-0.02759131,-0.35753842,-0.11045143,0.0
 2980302,0.37642930,-0.00305140,-0.03279862,-0.01161553,0.00019831,0.00
 213036,-0.00660149,-0.00075805,0.00005134,0.00110135,0.00075436,-0.000
 08914,0.00110170,-0.01088121,-0.11696837,-0.09834468,0.01116505,0.1200
 2334,0.10370385,0.00533564,0.00247865,0.00188469,0.00020800,0.00028284
 ,-0.00017968,0.00075371,0.00030704,-0.00083615,0.00088433,0.00021060,-
 0.00174599,-0.30792788,-0.11351927,0.10079107,-0.00033022,0.00044278,-
 0.00061442,0.32284339,0.00247878,0.00108214,0.00086620,0.00077544,0.00
 024762,-0.00094794,-0.00018553,-0.00029821,0.00048101,0.00021056,0.000
 52292,-0.00080249,-0.11351937,-0.11312764,0.04632715,-0.03121341,-0.01
 114726,0.01400268,0.12261655,0.11243087,0.02993028,0.01375674,-0.01161
 529,0.00033457,-0.00068216,0.00110135,-0.00029998,0.00069787,0.0011017
 0,-0.00194411,-0.00089344,-0.00660149,0.10673777,0.04906065,-0.0983445
 2,-0.01341342,-0.00406390,0.00532741,-0.10952578,-0.05034245,0.1037038
 5,0.00429223,-0.00308131,-0.00169263,0.00001738,-0.00023959,0.00000151
 ,0.00079564,-0.00026176,0.00156797,0.00069596,-0.00049371,0.00091078,-
 0.26013837,0.14111070,-0.09051619,0.00488107,-0.00345152,0.00318727,-0
 .02176708,0.01883684,-0.01181947,0.27122305,-0.00308126,0.00212562,0.0
 0119894,-0.00073216,0.00043812,-0.00096463,-0.00026180,0.00061161,-0.0
 0111082,-0.00000112,-0.00024034,0.00031836,0.14111062,-0.16091725,0.06
 412407,0.02820468,-0.01635855,0.01364832,-0.01281936,0.01028960,-0.007
 53344,-0.15241957,0.16405122,-0.02687855,0.01904182,-0.01161536,-0.000
 45438,-0.00060872,0.00110170,0.00174579,-0.00123692,-0.00660149,0.0004
 2349,0.00063083,0.00110135,-0.09585692,0.06790743,-0.09834454,0.012433
 89,-0.00646924,0.00532741,0.01022616,-0.00958441,0.00532741,0.09836073
 ,-0.06968088,0.10370385\\0.,0.,0.,-0.00000009,0.00000008,0.00000004,0.
 00000012,0.00000003,0.00000004,-0.00000003,-0.00000012,0.00000004,0.,0
 .,-0.00000007,0.00000008,-0.00000006,-0.00000002,0.,0.00000010,-0.0000
 0002,-0.00000009,-0.00000004,-0.00000002\\\@



 IN THIS SHORT LIFE

 THAT ONLY LASTS AN HOUR

 HOW MUCH, HOW LITTLE, IS WITHIN OUR POWER....


 EMILY DICKINSON BOLTS OF MELODY NO. 521
 Job cpu time:  0 days  0 hours 10 minutes 21.6 seconds.
 File lengths (MBytes):  RWF=     11 Int=      0 D2E=      0 Chk=      2 Scr=      1
 Normal termination of Gaussian 09 at Thu Feb 26 00:41:46 2015.
