 Entering Gaussian System, Link 0=g03
 Input=MA_b3lyp_AUG-cc-pVTZ.com
 Output=MA_b3lyp_AUG-cc-pVTZ.log
 Initial command:
 /apps/gaussian/g09_c01/g09/l1.exe /tmp/pbs.8910294.cx1b/Gau-11244.inp -scrdir=/tmp/pbs.8910294.cx1b/
 Entering Link 1 = /apps/gaussian/g09_c01/g09/l1.exe PID=     11246.
  
 Copyright (c) 1988,1990,1992,1993,1995,1998,2003,2009,2011,
            Gaussian, Inc.  All Rights Reserved.
  
 This is part of the Gaussian(R) 09 program.  It is based on
 the Gaussian(R) 03 system (copyright 2003, Gaussian, Inc.),
 the Gaussian(R) 98 system (copyright 1998, Gaussian, Inc.),
 the Gaussian(R) 94 system (copyright 1995, Gaussian, Inc.),
 the Gaussian 92(TM) system (copyright 1992, Gaussian, Inc.),
 the Gaussian 90(TM) system (copyright 1990, Gaussian, Inc.),
 the Gaussian 88(TM) system (copyright 1988, Gaussian, Inc.),
 the Gaussian 86(TM) system (copyright 1986, Carnegie Mellon
 University), and the Gaussian 82(TM) system (copyright 1983,
 Carnegie Mellon University). Gaussian is a federally registered
 trademark of Gaussian, Inc.
  
 This software contains proprietary and confidential information,
 including trade secrets, belonging to Gaussian, Inc.
  
 This software is provided under written license and may be
 used, copied, transmitted, or stored only in accord with that
 written license.
  
 The following legend is applicable only to US Government
 contracts under FAR:
  
                    RESTRICTED RIGHTS LEGEND
  
 Use, reproduction and disclosure by the US Government is
 subject to restrictions as set forth in subparagraphs (a)
 and (c) of the Commercial Computer Software - Restricted
 Rights clause in FAR 52.227-19.
  
 Gaussian, Inc.
 340 Quinnipiac St., Bldg. 40, Wallingford CT 06492
  
  
 ---------------------------------------------------------------
 Warning -- This program may not be used in any manner that
 competes with the business of Gaussian, Inc. or will provide
 assistance to any competitor of Gaussian, Inc.  The licensee
 of this program is prohibited from giving any competitor of
 Gaussian, Inc. access to this program.  By using this program,
 the user acknowledges that Gaussian, Inc. is engaged in the
 business of creating and licensing software in the field of
 computational chemistry and represents and warrants to the
 licensee that it is not a competitor of Gaussian, Inc. and that
 it will not use this program in any manner prohibited above.
 ---------------------------------------------------------------
  

 Cite this work as:
 Gaussian 09, Revision C.01,
 M. J. Frisch, G. W. Trucks, H. B. Schlegel, G. E. Scuseria, 
 M. A. Robb, J. R. Cheeseman, G. Scalmani, V. Barone, B. Mennucci, 
 G. A. Petersson, H. Nakatsuji, M. Caricato, X. Li, H. P. Hratchian, 
 A. F. Izmaylov, J. Bloino, G. Zheng, J. L. Sonnenberg, M. Hada, 
 M. Ehara, K. Toyota, R. Fukuda, J. Hasegawa, M. Ishida, T. Nakajima, 
 Y. Honda, O. Kitao, H. Nakai, T. Vreven, J. A. Montgomery, Jr., 
 J. E. Peralta, F. Ogliaro, M. Bearpark, J. J. Heyd, E. Brothers, 
 K. N. Kudin, V. N. Staroverov, T. Keith, R. Kobayashi, J. Normand, 
 K. Raghavachari, A. Rendell, J. C. Burant, S. S. Iyengar, J. Tomasi, 
 M. Cossi, N. Rega, J. M. Millam, M. Klene, J. E. Knox, J. B. Cross, 
 V. Bakken, C. Adamo, J. Jaramillo, R. Gomperts, R. E. Stratmann, 
 O. Yazyev, A. J. Austin, R. Cammi, C. Pomelli, J. W. Ochterski, 
 R. L. Martin, K. Morokuma, V. G. Zakrzewski, G. A. Voth, 
 P. Salvador, J. J. Dannenberg, S. Dapprich, A. D. Daniels, 
 O. Farkas, J. B. Foresman, J. V. Ortiz, J. Cioslowski, 
 and D. J. Fox, Gaussian, Inc., Wallingford CT, 2010.
 
 ******************************************
 Gaussian 09:  EM64L-G09RevC.01 23-Sep-2011
                26-Feb-2015 
 ******************************************
 %Chk=MA_b3lyp_AUG-cc-pVTZ.chk
 %Mem=8Gb
 %nproc=8
 Will use up to    8 processors via shared memory.
 ----------------------------------------------------------------------
 #p opt(VeryTight,CalcAll,Raman) Integral(Grid=UltraFine) b3lyp/AUG-cc-
 pVTZ
 ----------------------------------------------------------------------
 1/7=1,10=4,14=-1,18=20,19=15,26=3,38=1/1,3;
 2/9=110,12=2,17=6,18=5,40=1/2;
 3/5=16,6=1,7=10,11=2,16=1,25=1,30=1,71=2,74=-5,75=-5/1,2,3;
 4//1;
 5/5=2,38=5/2;
 8/6=4,10=90,11=11/1;
 10/13=10,15=4/2;
 11/6=3,8=1,9=11,15=111,16=1/1,2,10;
 10/6=1/2;
 6/7=2,8=2,9=2,10=2,18=1,28=1/1;
 7/10=1,25=1/1,2,3,16;
 1/7=1,10=4,14=-1,18=20,19=15/3(3);
 2/9=110/2;
 7/8=1,9=1,25=1,44=-1/16;
 99//99;
 2/9=110/2;
 3/5=16,6=1,7=10,11=2,16=1,25=1,30=1,71=2,74=-5,75=-5/1,2,3;
 4/5=5,16=3/1;
 5/5=2,38=5/2;
 8/6=4,10=90,11=11/1;
 10/13=10,15=4/2;
 11/6=3,8=1,9=11,15=111,16=1/1,2,10;
 10/6=1/2;
 7/10=1,25=1/1,2,3,16;
 1/7=1,10=4,14=-1,18=20,19=15/3(-9);
 2/9=110/2;
 6/7=2,8=2,9=2,10=2,18=1,19=2,28=1/1;
 7/8=1,9=1,25=1,44=-1/16;
 99//99;
 Leave Link    1 at Thu Feb 26 00:42:28 2015, MaxMem= 1073741824 cpu:       0.3
 (Enter /apps/gaussian/g09_c01/g09/l101.exe)
 ----------------------------------------------
 Autjob by noodles.sh | Great noodly basis sets
 ----------------------------------------------
 Charge =  1 Multiplicity = 1
 Symbolic Z-Matrix:
 C                     0.        0.       -0.80446 
 H                    -0.09587  -1.03096  -1.1445 
 H                    -0.8449    0.59851  -1.1445 
 H                     0.94078   0.43245  -1.1445 
 N                     0.        0.        0.71256 
 H                     0.08865   0.95193   1.09076 
 H                    -0.86872  -0.39919   1.09076 
 H                     0.78007  -0.55274   1.09076 
 
 NAtoms=      8 NQM=        0 NQMF=       0 NMMI=      8 NMMIF=      0
                NMic=       0 NMicF=      0.
                    Isotopes and Nuclear Properties:
 (Nuclear quadrupole moments (NQMom) in fm**2, nuclear magnetic moments (NMagM)
  in nuclear magnetons)

  Atom         1           2           3           4           5           6           7           8
 IAtWgt=          12           1           1           1          14           1           1           1
 AtmWgt=  12.0000000   1.0078250   1.0078250   1.0078250  14.0030740   1.0078250   1.0078250   1.0078250
 NucSpn=           0           1           1           1           2           1           1           1
 AtZEff=   0.0000000   0.0000000   0.0000000   0.0000000   0.0000000   0.0000000   0.0000000   0.0000000
 NQMom=    0.0000000   0.0000000   0.0000000   0.0000000   2.0440000   0.0000000   0.0000000   0.0000000
 NMagM=    0.0000000   2.7928460   2.7928460   2.7928460   0.4037610   2.7928460   2.7928460   2.7928460
 Leave Link  101 at Thu Feb 26 00:42:28 2015, MaxMem= 1073741824 cpu:       0.9
 (Enter /apps/gaussian/g09_c01/g09/l103.exe)

 GradGradGradGradGradGradGradGradGradGradGradGradGradGradGradGradGradGrad
 Berny optimization.
 Initialization pass.
                           ----------------------------
                           !    Initial Parameters    !
                           ! (Angstroms and Degrees)  !
 --------------------------                            --------------------------
 ! Name  Definition              Value          Derivative Info.                !
 --------------------------------------------------------------------------------
 ! R1    R(1,2)                  1.0898         calculate D2E/DX2 analytically  !
 ! R2    R(1,3)                  1.0898         calculate D2E/DX2 analytically  !
 ! R3    R(1,4)                  1.0898         calculate D2E/DX2 analytically  !
 ! R4    R(1,5)                  1.517          calculate D2E/DX2 analytically  !
 ! R5    R(5,6)                  1.0281         calculate D2E/DX2 analytically  !
 ! R6    R(5,7)                  1.0281         calculate D2E/DX2 analytically  !
 ! R7    R(5,8)                  1.0281         calculate D2E/DX2 analytically  !
 ! A1    A(2,1,3)              110.7303         calculate D2E/DX2 analytically  !
 ! A2    A(2,1,4)              110.7304         calculate D2E/DX2 analytically  !
 ! A3    A(2,1,5)              108.1807         calculate D2E/DX2 analytically  !
 ! A4    A(3,1,4)              110.7303         calculate D2E/DX2 analytically  !
 ! A5    A(3,1,5)              108.1807         calculate D2E/DX2 analytically  !
 ! A6    A(4,1,5)              108.1807         calculate D2E/DX2 analytically  !
 ! A7    A(1,5,6)              111.5829         calculate D2E/DX2 analytically  !
 ! A8    A(1,5,7)              111.583          calculate D2E/DX2 analytically  !
 ! A9    A(1,5,8)              111.583          calculate D2E/DX2 analytically  !
 ! A10   A(6,5,7)              107.2794         calculate D2E/DX2 analytically  !
 ! A11   A(6,5,8)              107.2794         calculate D2E/DX2 analytically  !
 ! A12   A(7,5,8)              107.2794         calculate D2E/DX2 analytically  !
 ! D1    D(2,1,5,6)            179.9926         calculate D2E/DX2 analytically  !
 ! D2    D(2,1,5,7)            -60.0075         calculate D2E/DX2 analytically  !
 ! D3    D(2,1,5,8)             59.9926         calculate D2E/DX2 analytically  !
 ! D4    D(3,1,5,6)            -60.0075         calculate D2E/DX2 analytically  !
 ! D5    D(3,1,5,7)             59.9925         calculate D2E/DX2 analytically  !
 ! D6    D(3,1,5,8)            179.9926         calculate D2E/DX2 analytically  !
 ! D7    D(4,1,5,6)             59.9925         calculate D2E/DX2 analytically  !
 ! D8    D(4,1,5,7)            179.9925         calculate D2E/DX2 analytically  !
 ! D9    D(4,1,5,8)            -60.0075         calculate D2E/DX2 analytically  !
 --------------------------------------------------------------------------------
 Trust Radius=3.00D-01 FncErr=1.00D-07 GrdErr=1.00D-06
 Number of steps in this run=     38 maximum allowed number of steps=    100.
 GradGradGradGradGradGradGradGradGradGradGradGradGradGradGradGradGradGrad

 Leave Link  103 at Thu Feb 26 00:42:28 2015, MaxMem= 1073741824 cpu:       0.0
 (Enter /apps/gaussian/g09_c01/g09/l202.exe)
                          Input orientation:                          
 ---------------------------------------------------------------------
 Center     Atomic      Atomic             Coordinates (Angstroms)
 Number     Number       Type             X           Y           Z
 ---------------------------------------------------------------------
      1          6           0        0.000000    0.000000   -0.804455
      2          1           0       -0.095874   -1.030964   -1.144495
      3          1           0       -0.844904    0.598511   -1.144495
      4          1           0        0.940777    0.432453   -1.144495
      5          7           0        0.000000    0.000000    0.712562
      6          1           0        0.088649    0.951929    1.090759
      7          1           0       -0.868719   -0.399192    1.090759
      8          1           0        0.780070   -0.552736    1.090759
 ---------------------------------------------------------------------
                    Distance matrix (angstroms):
                    1          2          3          4          5
     1  C    0.000000
     2  H    1.089819   0.000000
     3  H    1.089819   1.793386   0.000000
     4  H    1.089818   1.793386   1.793386   0.000000
     5  N    1.517017   2.126203   2.126203   2.126203   0.000000
     6  H    2.122702   2.993706   2.448017   2.447925   1.028134
     7  H    2.122702   2.448017   2.447925   2.993705   1.028134
     8  H    2.122702   2.447926   2.993705   2.448016   1.028134
                    6          7          8
     6  H    0.000000
     7  H    1.655923   0.000000
     8  H    1.655923   1.655923   0.000000
 Stoichiometry    CH6N(1+)
 Framework group  C3[C3(CN),X(H6)]
 Deg. of freedom     6
 Full point group                 C3      NOp   3
 Largest Abelian subgroup         C1      NOp   1
 Largest concise Abelian subgroup C1      NOp   1
                         Standard orientation:                         
 ---------------------------------------------------------------------
 Center     Atomic      Atomic             Coordinates (Angstroms)
 Number     Number       Type             X           Y           Z
 ---------------------------------------------------------------------
      1          6           0        0.000000    0.000000   -0.804455
      2          1           0        1.030964   -0.095874   -1.144495
      3          1           0       -0.598511   -0.844904   -1.144495
      4          1           0       -0.432453    0.940778   -1.144495
      5          7           0        0.000000    0.000000    0.712562
      6          1           0       -0.951929    0.088649    1.090759
      7          1           0        0.399192   -0.868719    1.090759
      8          1           0        0.552737    0.780070    1.090759
 ---------------------------------------------------------------------
 Rotational constants (GHZ):     84.1605103     19.8694623     19.8694623
 Leave Link  202 at Thu Feb 26 00:42:28 2015, MaxMem= 1073741824 cpu:       0.0
 (Enter /apps/gaussian/g09_c01/g09/l301.exe)
 Standard basis: Aug-CC-pVTZ (5D, 7F)
 Ernie: Thresh=  0.10000D-02 Tol=  0.10000D-05 Strict=F.
 Ernie:  6 primitive shells out of 126 were deleted.
 There are   230 symmetry adapted basis functions of A   symmetry.
 Integral buffers will be    131072 words long.
 Raffenetti 2 integral format.
 Two-electron integral symmetry is turned on.
   230 basis functions,   306 primitive gaussians,   260 cartesian basis functions
     9 alpha electrons        9 beta electrons
       nuclear repulsion energy        47.5846100594 Hartrees.
 IExCor=  402 DFT=T Ex+Corr=B3LYP ExCW=0 ScaHFX=  0.200000
 ScaDFX=  0.800000  0.720000  1.000000  0.810000 ScalE2=  1.000000  1.000000
 IRadAn=      5 IRanWt=     -1 IRanGd=            0 ICorTp=0
 NAtoms=    8 NActive=    8 NUniq=    4 SFac= 4.00D+00 NAtFMM=   60 NAOKFM=F Big=F
 Leave Link  301 at Thu Feb 26 00:42:28 2015, MaxMem= 1073741824 cpu:       0.3
 (Enter /apps/gaussian/g09_c01/g09/l302.exe)
 NPDir=0 NMtPBC=     1 NCelOv=     1 NCel=       1 NClECP=     1 NCelD=      1
         NCelK=      1 NCelE2=     1 NClLst=     1 CellRange=     0.0.
 One-electron integrals computed using PRISM.
 NBasis=   230 RedAO= T  NBF=   230
 NBsUse=   230 1.00D-06 NBFU=   230
 Precomputing XC quadrature grid using
 IXCGrd= 2 IRadAn=           5 IRanWt=          -1 IRanGd=           0 AccXCQ= 0.00D+00.
 NRdTot=     686 NPtTot=      184910 NUsed=      189829 NTot=      189861
 NSgBfM=   260   260   260   260   260 NAtAll=     8     8.
 Leave Link  302 at Thu Feb 26 00:42:29 2015, MaxMem= 1073741824 cpu:       1.9
 (Enter /apps/gaussian/g09_c01/g09/l303.exe)
 DipDrv:  MaxL=1.
 Leave Link  303 at Thu Feb 26 00:42:29 2015, MaxMem= 1073741824 cpu:       0.2
 (Enter /apps/gaussian/g09_c01/g09/l401.exe)
 Harris functional with IExCor=  402 diagonalized for initial guess.
 ExpMin= 2.53D-02 ExpMax= 1.14D+04 ExpMxC= 3.89D+02 IAcc=3 IRadAn=         5 AccDes= 0.00D+00
 HarFok:  IExCor=  402 AccDes= 0.00D+00 IRadAn=         5 IDoV= 1
 ScaDFX=  1.000000  1.000000  1.000000  1.000000
 FoFCou: FMM=F IPFlag=           0 FMFlag=      100000 FMFlg1=           0
         NFxFlg=           0 DoJE=T BraDBF=F KetDBF=T FulRan=T
         Omega=  0.000000  0.000000  1.000000  0.000000  0.000000 ICntrl=     500 IOpCl=  0
         NMat0=    1 NMatS0=    1 NMatT0=    0 NMatD0=    1 NMtDS0=    0 NMtDT0=    0
         I1Cent=           4 NGrid=           0.
 Petite list used in FoFCou.
 DSYEVD returned Info=         346 IAlg= 4 N=   230 NDim=   230 NE2=     4667847 trying DSYEV.
 Harris En= -96.3291389964775    
 Initial guess orbital symmetries:
       Occupied  (A) (A) (A) (A) (E) (E) (A) (E) (E)
       Virtual   (A) (A) (E) (E) (A) (E) (E) (A) (E) (E) (A) (E)
                 (E) (A) (E) (E) (E) (E) (A) (E) (E) (A) (E) (E)
                 (A) (A) (A) (E) (E) (A) (E) (E) (E) (E) (A) (E)
                 (E) (A) (A) (E) (E) (A) (E) (E) (E) (E) (A) (E)
                 (E) (A) (A) (E) (E) (E) (E) (A) (A) (E) (E) (A)
                 (E) (E) (A) (E) (E) (A) (A) (E) (E) (A) (E) (E)
                 (A) (E) (E) (E) (E) (A) (E) (E) (E) (E) (E) (E)
                 (A) (E) (E) (A) (A) (E) (E) (A) (E) (E) (E) (E)
                 (A) (E) (E) (A) (A) (E) (E) (A) (A) (E) (E) (A)
                 (E) (E) (A) (E) (E) (A) (E) (E) (A) (E) (E) (A)
                 (E) (E) (E) (E) (A) (E) (E) (A) (E) (E) (A) (A)
                 (E) (E) (A) (A) (E) (E) (A) (E) (E) (A) (E) (E)
                 (A) (E) (E) (A) (E) (E) (E) (E) (A) (E) (E) (A)
                 (E) (E) (A) (E) (E) (E) (E) (A) (A) (E) (E) (A)
                 (A) (E) (E) (A) (E) (E) (E) (E) (E) (E) (A) (A)
                 (E) (E) (E) (E) (A) (A) (E) (E) (A) (E) (E) (A)
                 (A) (E) (E) (A) (E) (E) (E) (E) (A) (A) (E) (E)
                 (A) (E) (E) (A) (E) (E) (A) (E) (E) (A) (A) (E)
                 (E) (E) (E) (A) (A)
 The electronic state of the initial guess is 1-A.
 Leave Link  401 at Thu Feb 26 00:42:30 2015, MaxMem= 1073741824 cpu:       5.3
 (Enter /apps/gaussian/g09_c01/g09/l502.exe)
 Closed shell SCF:
 Requested convergence on RMS density matrix=1.00D-08 within 128 cycles.
 Requested convergence on MAX density matrix=1.00D-06.
 Requested convergence on             energy=1.00D-06.
 No special actions if energy rises.
 Using DIIS extrapolation, IDIIS=  1040.
 Integral symmetry usage will be decided dynamically.
       189744 words used for storage of precomputed grid.
 Keep R1 ints in memory in canonical form, NReq=584943911.
 IEnd=      414822 IEndB=      414822 NGot=  1073741824 MDV=   497772060
 LenX=   497772060 LenY=   497704019
 Symmetry not used in FoFDir.
 MinBra= 0 MaxBra= 3 Meth= 1.
 IRaf=       0 NMat=   1 IRICut=       1 DoRegI=T DoRafI=F ISym2E= 0 JSym2E=0.

 Cycle   1  Pass 1  IDiag  1:
 E= -96.2146806120309    
 DIIS: error= 2.06D-02 at cycle   1 NSaved=   1.
 NSaved= 1 IEnMin= 1 EnMin= -96.2146806120309     IErMin= 1 ErrMin= 2.06D-02
 ErrMax= 2.06D-02 EMaxC= 1.00D-01 BMatC= 5.25D-02 BMatP= 5.25D-02
 IDIUse=3 WtCom= 7.94D-01 WtEn= 2.06D-01
 Coeff-Com:  0.100D+01
 Coeff-En:   0.100D+01
 Coeff:      0.100D+01
 Gap=     0.364 Goal=   None    Shift=    0.000
 GapD=    0.364 DampG=1.000 DampE=0.500 DampFc=0.5000 IDamp=-1.
 Damping current iteration by 5.00D-01
 RMSDP=1.02D-03 MaxDP=5.12D-02              OVMax= 1.11D-01

 Cycle   2  Pass 1  IDiag  1:
 E= -96.2358021491011     Delta-E=       -0.021121537070 Rises=F Damp=T
 DIIS: error= 4.35D-03 at cycle   2 NSaved=   2.
 NSaved= 2 IEnMin= 2 EnMin= -96.2358021491011     IErMin= 2 ErrMin= 4.35D-03
 ErrMax= 4.35D-03 EMaxC= 1.00D-01 BMatC= 3.60D-03 BMatP= 5.25D-02
 IDIUse=3 WtCom= 9.56D-01 WtEn= 4.35D-02
 Coeff-Com: -0.607D-01 0.106D+01
 Coeff-En:   0.000D+00 0.100D+01
 Coeff:     -0.581D-01 0.106D+01
 Gap=     0.411 Goal=   None    Shift=    0.000
 DSYEVD returned Info=       27026 IAlg= 4 N=   230 NDim=   230 NE2=     2163929 trying DSYEV.
 RMSDP=4.62D-04 MaxDP=1.46D-02 DE=-2.11D-02 OVMax= 6.07D-02

 Cycle   3  Pass 1  IDiag  1:
 E= -96.2571741506145     Delta-E=       -0.021372001513 Rises=F Damp=F
 DIIS: error= 3.26D-03 at cycle   3 NSaved=   3.
 NSaved= 3 IEnMin= 3 EnMin= -96.2571741506145     IErMin= 3 ErrMin= 3.26D-03
 ErrMax= 3.26D-03 EMaxC= 1.00D-01 BMatC= 9.92D-04 BMatP= 3.60D-03
 IDIUse=3 WtCom= 9.67D-01 WtEn= 3.26D-02
 Coeff-Com: -0.936D-01 0.340D+00 0.754D+00
 Coeff-En:   0.000D+00 0.000D+00 0.100D+01
 Coeff:     -0.906D-01 0.329D+00 0.762D+00
 Gap=     0.412 Goal=   None    Shift=    0.000
 DSYEVD returned Info=         461 IAlg= 4 N=   230 NDim=   230 NE2=     2163929 trying DSYEV.
 RMSDP=8.68D-05 MaxDP=2.96D-03 DE=-2.14D-02 OVMax= 8.95D-03

 Cycle   4  Pass 1  IDiag  1:
 E= -96.2580279733866     Delta-E=       -0.000853822772 Rises=F Damp=F
 DIIS: error= 7.52D-04 at cycle   4 NSaved=   4.
 NSaved= 4 IEnMin= 4 EnMin= -96.2580279733866     IErMin= 4 ErrMin= 7.52D-04
 ErrMax= 7.52D-04 EMaxC= 1.00D-01 BMatC= 7.20D-05 BMatP= 9.92D-04
 IDIUse=3 WtCom= 9.92D-01 WtEn= 7.52D-03
 Coeff-Com: -0.300D-01 0.840D-01 0.293D+00 0.653D+00
 Coeff-En:   0.000D+00 0.000D+00 0.000D+00 0.100D+01
 Coeff:     -0.298D-01 0.833D-01 0.291D+00 0.656D+00
 Gap=     0.410 Goal=   None    Shift=    0.000
 DSYEVD returned Info=         461 IAlg= 4 N=   230 NDim=   230 NE2=     2163929 trying DSYEV.
 RMSDP=2.47D-05 MaxDP=1.04D-03 DE=-8.54D-04 OVMax= 3.61D-03

 Cycle   5  Pass 1  IDiag  1:
 E= -96.2580784273658     Delta-E=       -0.000050453979 Rises=F Damp=F
 DIIS: error= 3.79D-04 at cycle   5 NSaved=   5.
 NSaved= 5 IEnMin= 5 EnMin= -96.2580784273658     IErMin= 5 ErrMin= 3.79D-04
 ErrMax= 3.79D-04 EMaxC= 1.00D-01 BMatC= 1.49D-05 BMatP= 7.20D-05
 IDIUse=3 WtCom= 9.96D-01 WtEn= 3.79D-03
 Coeff-Com: -0.100D-01 0.181D-01 0.108D+00 0.362D+00 0.522D+00
 Coeff-En:   0.000D+00 0.000D+00 0.000D+00 0.749D-01 0.925D+00
 Coeff:     -0.100D-01 0.180D-01 0.108D+00 0.361D+00 0.524D+00
 Gap=     0.411 Goal=   None    Shift=    0.000
 DSYEVD returned Info=         461 IAlg= 4 N=   230 NDim=   230 NE2=     2163929 trying DSYEV.
 RMSDP=7.61D-06 MaxDP=3.53D-04 DE=-5.05D-05 OVMax= 9.08D-04

 Cycle   6  Pass 1  IDiag  1:
 E= -96.2580894690747     Delta-E=       -0.000011041709 Rises=F Damp=F
 DIIS: error= 2.55D-05 at cycle   6 NSaved=   6.
 NSaved= 6 IEnMin= 6 EnMin= -96.2580894690747     IErMin= 6 ErrMin= 2.55D-05
 ErrMax= 2.55D-05 EMaxC= 1.00D-01 BMatC= 4.47D-08 BMatP= 1.49D-05
 IDIUse=1 WtCom= 1.00D+00 WtEn= 0.00D+00
 Coeff-Com: -0.743D-04-0.420D-03 0.425D-02 0.162D-01 0.663D-01 0.914D+00
 Coeff:     -0.743D-04-0.420D-03 0.425D-02 0.162D-01 0.663D-01 0.914D+00
 Gap=     0.411 Goal=   None    Shift=    0.000
 DSYEVD returned Info=         461 IAlg= 4 N=   230 NDim=   230 NE2=     2163929 trying DSYEV.
 RMSDP=6.81D-07 MaxDP=4.63D-05 DE=-1.10D-05 OVMax= 9.24D-05

 Cycle   7  Pass 1  IDiag  1:
 E= -96.2580895082875     Delta-E=       -0.000000039213 Rises=F Damp=F
 DIIS: error= 2.83D-06 at cycle   7 NSaved=   7.
 NSaved= 7 IEnMin= 7 EnMin= -96.2580895082875     IErMin= 7 ErrMin= 2.83D-06
 ErrMax= 2.83D-06 EMaxC= 1.00D-01 BMatC= 7.28D-10 BMatP= 4.47D-08
 IDIUse=1 WtCom= 1.00D+00 WtEn= 0.00D+00
 Coeff-Com:  0.122D-03-0.303D-03-0.620D-03-0.171D-02 0.134D-02 0.155D+00
 Coeff-Com:  0.846D+00
 Coeff:      0.122D-03-0.303D-03-0.620D-03-0.171D-02 0.134D-02 0.155D+00
 Coeff:      0.846D+00
 Gap=     0.411 Goal=   None    Shift=    0.000
 DSYEVD returned Info=         461 IAlg= 4 N=   230 NDim=   230 NE2=     2163929 trying DSYEV.
 RMSDP=7.95D-08 MaxDP=1.85D-06 DE=-3.92D-08 OVMax= 8.41D-06

 Cycle   8  Pass 1  IDiag  1:
 E= -96.2580895090764     Delta-E=       -0.000000000789 Rises=F Damp=F
 DIIS: error= 2.34D-07 at cycle   8 NSaved=   8.
 NSaved= 8 IEnMin= 8 EnMin= -96.2580895090764     IErMin= 8 ErrMin= 2.34D-07
 ErrMax= 2.34D-07 EMaxC= 1.00D-01 BMatC= 1.02D-11 BMatP= 7.28D-10
 IDIUse=1 WtCom= 1.00D+00 WtEn= 0.00D+00
 Coeff-Com:  0.239D-04-0.471D-04-0.270D-03-0.813D-03-0.180D-02 0.977D-04
 Coeff-Com:  0.106D+00 0.897D+00
 Coeff:      0.239D-04-0.471D-04-0.270D-03-0.813D-03-0.180D-02 0.977D-04
 Coeff:      0.106D+00 0.897D+00
 Gap=     0.411 Goal=   None    Shift=    0.000
 DSYEVD returned Info=         461 IAlg= 4 N=   230 NDim=   230 NE2=     2163929 trying DSYEV.
 RMSDP=1.54D-08 MaxDP=6.90D-07 DE=-7.89D-10 OVMax= 1.17D-06

 Cycle   9  Pass 1  IDiag  1:
 E= -96.2580895090857     Delta-E=       -0.000000000009 Rises=F Damp=F
 DIIS: error= 2.76D-08 at cycle   9 NSaved=   9.
 NSaved= 9 IEnMin= 9 EnMin= -96.2580895090857     IErMin= 9 ErrMin= 2.76D-08
 ErrMax= 2.76D-08 EMaxC= 1.00D-01 BMatC= 1.15D-13 BMatP= 1.02D-11
 IDIUse=1 WtCom= 1.00D+00 WtEn= 0.00D+00
 Coeff-Com: -0.185D-05 0.400D-05 0.137D-05 0.241D-04-0.299D-04-0.153D-02
 Coeff-Com: -0.606D-02 0.273D-01 0.980D+00
 Coeff:     -0.185D-05 0.400D-05 0.137D-05 0.241D-04-0.299D-04-0.153D-02
 Coeff:     -0.606D-02 0.273D-01 0.980D+00
 Gap=     0.411 Goal=   None    Shift=    0.000
 RMSDP=1.45D-09 MaxDP=5.42D-08 DE=-9.29D-12 OVMax= 1.02D-07

 SCF Done:  E(RB3LYP) =  -96.2580895091     A.U. after    9 cycles
             Convg  =    0.1451D-08             -V/T =  2.0073
 KE= 9.555679124634D+01 PE=-3.132138809995D+02 EE= 7.381439018467D+01
 Leave Link  502 at Thu Feb 26 00:42:52 2015, MaxMem= 1073741824 cpu:     171.4
 (Enter /apps/gaussian/g09_c01/g09/l801.exe)
 Range of M.O.s used for correlation:     1   230
 NBasis=   230 NAE=     9 NBE=     9 NFC=     0 NFV=     0
 NROrb=    230 NOA=     9 NOB=     9 NVA=   221 NVB=   221

 **** Warning!!: The largest alpha MO coefficient is  0.56380164D+02

 Leave Link  801 at Thu Feb 26 00:42:52 2015, MaxMem= 1073741824 cpu:       0.1
 (Enter /apps/gaussian/g09_c01/g09/l1002.exe)
 Minotr:  Closed shell wavefunction.
          Direct CPHF calculation.
          Differentiating once with respect to electric field.
                with respect to dipole field.
          Electric field/nuclear overlap derivatives assumed to be zero.
          Using symmetry in CPHF.
          Requested convergence is 1.0D-08 RMS, and 1.0D-07 maximum.
          Secondary convergence is 1.0D-12 RMS, and 1.0D-12 maximum.
          NewPWx=F KeepS1=T KeepF1=T KeepIn=T MapXYZ=F SortEE=F KeepMc=T.
          MDV=    1073741756 using IRadAn=       1.
 Generate precomputed XC quadrature information.
          Keep R1 ints in memory in canonical form, NReq=577583429.
 Symmetry not used in FoFDir.
 MinBra= 0 MaxBra= 3 Meth= 1.
 IRaf=       0 NMat=   1 IRICut=       1 DoRegI=T DoRafI=F ISym2E= 0 JSym2E=0.
          Solving linear equations simultaneously, MaxMat=       0.
          There are     3 degrees of freedom in the 1st order CPHF.  IDoFFX=0.
      3 vectors produced by pass  0 Test12= 6.63D-14 3.33D-08 XBig12= 1.08D+01 1.39D+00.
 AX will form     3 AO Fock derivatives at one time.
      3 vectors produced by pass  1 Test12= 6.63D-14 3.33D-08 XBig12= 6.71D-01 3.34D-01.
      3 vectors produced by pass  2 Test12= 6.63D-14 3.33D-08 XBig12= 1.61D-01 1.13D-01.
      3 vectors produced by pass  3 Test12= 6.63D-14 3.33D-08 XBig12= 8.53D-03 2.75D-02.
      3 vectors produced by pass  4 Test12= 6.63D-14 3.33D-08 XBig12= 1.90D-03 8.87D-03.
      3 vectors produced by pass  5 Test12= 6.63D-14 3.33D-08 XBig12= 6.19D-05 2.05D-03.
      3 vectors produced by pass  6 Test12= 6.63D-14 3.33D-08 XBig12= 2.52D-06 4.13D-04.
      3 vectors produced by pass  7 Test12= 6.63D-14 3.33D-08 XBig12= 4.29D-08 7.59D-05.
      1 vectors produced by pass  8 Test12= 6.63D-14 3.33D-08 XBig12= 1.48D-10 3.48D-06.
      1 vectors produced by pass  9 Test12= 6.63D-14 3.33D-08 XBig12= 2.72D-13 1.50D-07.
 Inverted reduced A of dimension    26 with in-core refinement.
 End of Minotr Frequency-dependent properties file   721 does not exist.
 End of Minotr Frequency-dependent properties file   722 does not exist.
 Leave Link 1002 at Thu Feb 26 00:43:32 2015, MaxMem= 1073741824 cpu:     316.4
 (Enter /apps/gaussian/g09_c01/g09/l1101.exe)
 Using compressed storage, NAtomX=     8.
 Will process   9 centers per pass.
 Leave Link 1101 at Thu Feb 26 00:43:32 2015, MaxMem= 1073741824 cpu:       2.0
 (Enter /apps/gaussian/g09_c01/g09/l1102.exe)
 Symmetrizing basis deriv contribution to polar:
 IMax=3 JMax=2 DiffMx= 0.00D+00
 Leave Link 1102 at Thu Feb 26 00:43:33 2015, MaxMem= 1073741824 cpu:       0.3
 (Enter /apps/gaussian/g09_c01/g09/l1110.exe)
 Forming Gx(P) for the SCF density, NAtomX=     8.
 Integral derivatives from FoFDir/FoFCou, PRISM(SPDF).
 Do as many integral derivatives as possible in FoFDir.
 G2DrvN: MDV=    1073741656.
 G2DrvN: will do     9 centers at a time, making    1 passes doing MaxLOS=3.
 Calling FoFCou, ICntrl=  3107 FMM=F I1Cent=   0 AccDes= 0.00D+00.
 FoFCou: FMM=F IPFlag=           0 FMFlag=      100000 FMFlg1=           0
         NFxFlg=           0 DoJE=F BraDBF=F KetDBF=F FulRan=T
         Omega=  0.000000  0.000000  1.000000  0.000000  0.000000 ICntrl=    3107 IOpCl=  0
         NMat0=    1 NMatS0=    1 NMatT0=    0 NMatD0=    4 NMtDS0=    3 NMtDT0=    0
         I1Cent=           0 NGrid=           0.
 Petite list used in FoFCou.
 FoFDir/FoFCou used for L=0 through L=3.
 End of G2Drv Frequency-dependent properties file   721 does not exist.
 End of G2Drv Frequency-dependent properties file   722 does not exist.
 Leave Link 1110 at Thu Feb 26 00:44:17 2015, MaxMem= 1073741824 cpu:     351.2
 (Enter /apps/gaussian/g09_c01/g09/l1002.exe)
 Minotr:  Closed shell wavefunction.
          IDoAtm=11111111
          Direct CPHF calculation.
          Differentiating once with respect to electric field.
                with respect to dipole field.
          Differentiating once with respect to nuclear coordinates.
          Using symmetry in CPHF.
          Requested convergence is 1.0D-08 RMS, and 1.0D-07 maximum.
          Secondary convergence is 1.0D-12 RMS, and 1.0D-12 maximum.
          NewPWx=T KeepS1=F KeepF1=F KeepIn=T MapXYZ=F SortEE=F KeepMc=T.
          MDV=    1073741740 using IRadAn=       1.
 Generate precomputed XC quadrature information.
          Keep R1 ints in memory in canonical form, NReq=577583597.
 Symmetry not used in FoFDir.
 MinBra= 0 MaxBra= 3 Meth= 1.
 IRaf=       0 NMat=   1 IRICut=       1 DoRegI=T DoRafI=F ISym2E= 0 JSym2E=0.
          Solving linear equations simultaneously, MaxMat=       0.
          There are    15 degrees of freedom in the 1st order CPHF.  IDoFFX=4.
 Will reuse    3 saved solutions.
     12 vectors produced by pass  0 Test12= 1.33D-14 6.67D-09 XBig12= 7.49D-02 8.60D-02.
 AX will form    12 AO Fock derivatives at one time.
     12 vectors produced by pass  1 Test12= 1.33D-14 6.67D-09 XBig12= 5.52D-03 1.98D-02.
     12 vectors produced by pass  2 Test12= 1.33D-14 6.67D-09 XBig12= 6.16D-05 1.60D-03.
     12 vectors produced by pass  3 Test12= 1.33D-14 6.67D-09 XBig12= 4.33D-07 1.49D-04.
     12 vectors produced by pass  4 Test12= 1.33D-14 6.67D-09 XBig12= 1.34D-09 9.60D-06.
     11 vectors produced by pass  5 Test12= 1.33D-14 6.67D-09 XBig12= 1.99D-12 4.38D-07.
      1 vectors produced by pass  6 Test12= 1.33D-14 6.67D-09 XBig12= 2.33D-15 1.29D-08.
 Inverted reduced A of dimension    72 with in-core refinement.
 FullF1:  Do perturbations    1 to    15.
 Isotropic polarizability for W=    0.000000       20.55 Bohr**3.
 FullF1:  Do perturbations    1 to     6.
 End of Minotr Frequency-dependent properties file   721 does not exist.
 End of Minotr Frequency-dependent properties file   722 does not exist.
 Leave Link 1002 at Thu Feb 26 00:45:19 2015, MaxMem= 1073741824 cpu:     494.7
 (Enter /apps/gaussian/g09_c01/g09/l601.exe)
 Copying SCF densities to generalized density rwf, IOpCl= 0 IROHF=0.

 **********************************************************************

            Population analysis using the SCF density.

 **********************************************************************

 Orbital symmetries:
       Occupied  (A) (A) (A) (A) (E) (E) (A) (E) (E)
       Virtual   (A) (A) (E) (E) (E) (E) (A) (A) (E) (E) (A) (E)
                 (E) (A) (E) (E) (E) (E) (A) (E) (E) (A) (A) (A)
                 (E) (E) (A) (E) (E) (E) (E) (A) (E) (E) (A) (E)
                 (E) (A) (A) (E) (E) (A) (E) (E) (E) (E) (A) (E)
                 (E) (A) (A) (E) (E) (A) (E) (E) (A) (E) (E) (A)
                 (E) (E) (A) (A) (E) (E) (E) (E) (A) (A) (E) (E)
                 (E) (E) (A) (E) (E) (A) (E) (E) (E) (E) (E) (E)
                 (A) (E) (E) (A) (A) (E) (E) (A) (E) (E) (E) (E)
                 (A) (A) (E) (E) (A) (E) (E) (A) (A) (E) (E) (A)
                 (E) (E) (A) (E) (E) (E) (E) (A) (A) (E) (E) (A)
                 (E) (E) (E) (E) (A) (E) (E) (A) (E) (E) (A) (A)
                 (E) (E) (A) (A) (E) (E) (A) (E) (E) (A) (E) (E)
                 (A) (E) (E) (A) (E) (E) (E) (E) (A) (E) (E) (A)
                 (A) (E) (E) (E) (E) (E) (E) (A) (A) (E) (E) (A)
                 (A) (E) (E) (A) (E) (E) (E) (E) (E) (E) (A) (A)
                 (E) (E) (A) (E) (E) (E) (E) (A) (A) (E) (E) (A)
                 (A) (E) (E) (A) (E) (E) (E) (E) (A) (A) (E) (E)
                 (E) (E) (A) (A) (E) (E) (A) (A) (E) (E) (A) (E)
                 (E) (E) (E) (A) (A)
 The electronic state is 1-A.
 Alpha  occ. eigenvalues --  -14.66787 -10.43988  -1.22299  -0.93762  -0.80663
 Alpha  occ. eigenvalues --   -0.80663  -0.70946  -0.63005  -0.63005
 Alpha virt. eigenvalues --   -0.21936  -0.15367  -0.15262  -0.15262  -0.11136
 Alpha virt. eigenvalues --   -0.11136  -0.10068  -0.07605  -0.07490  -0.07490
 Alpha virt. eigenvalues --   -0.05538  -0.05419  -0.05419  -0.03035  -0.02678
 Alpha virt. eigenvalues --   -0.02678  -0.01100  -0.01100   0.00554   0.02914
 Alpha virt. eigenvalues --    0.02914   0.06558   0.08881   0.09057   0.09668
 Alpha virt. eigenvalues --    0.09668   0.12076   0.12771   0.12771   0.15154
 Alpha virt. eigenvalues --    0.15154   0.15393   0.16441   0.16441   0.17227
 Alpha virt. eigenvalues --    0.17870   0.17870   0.18166   0.19146   0.25668
 Alpha virt. eigenvalues --    0.25668   0.26437   0.26681   0.26681   0.28456
 Alpha virt. eigenvalues --    0.28456   0.33228   0.33432   0.33432   0.42402
 Alpha virt. eigenvalues --    0.43222   0.44142   0.44142   0.49031   0.49879
 Alpha virt. eigenvalues --    0.49879   0.52664   0.54602   0.54602   0.57395
 Alpha virt. eigenvalues --    0.59728   0.59728   0.60011   0.60496   0.60601
 Alpha virt. eigenvalues --    0.60601   0.64883   0.64883   0.66465   0.68674
 Alpha virt. eigenvalues --    0.73879   0.73879   0.75365   0.75365   0.75616
 Alpha virt. eigenvalues --    0.81821   0.81821   0.83086   0.84552   0.84552
 Alpha virt. eigenvalues --    0.87916   0.87916   0.90784   0.90784   0.92273
 Alpha virt. eigenvalues --    0.94706   0.94706   0.98431   0.98566   0.99306
 Alpha virt. eigenvalues --    0.99306   1.10669   1.11228   1.11228   1.17978
 Alpha virt. eigenvalues --    1.17978   1.19838   1.21908   1.22094   1.22094
 Alpha virt. eigenvalues --    1.24521   1.27761   1.27761   1.30777   1.32513
 Alpha virt. eigenvalues --    1.37287   1.37287   1.38468   1.43188   1.43188
 Alpha virt. eigenvalues --    1.48078   1.54829   1.54829   1.56436   1.56436
 Alpha virt. eigenvalues --    1.56635   1.62507   1.65118   1.65118   1.66569
 Alpha virt. eigenvalues --    1.77223   1.77223   1.79654   1.79654   1.88795
 Alpha virt. eigenvalues --    1.94494   1.94494   1.97584   2.03063   2.03063
 Alpha virt. eigenvalues --    2.11921   2.12253   2.15890   2.15890   2.43403
 Alpha virt. eigenvalues --    2.63839   2.81148   2.81148   2.86822   3.03106
 Alpha virt. eigenvalues --    3.03106   3.07356   3.07990   3.07990   3.17348
 Alpha virt. eigenvalues --    3.18464   3.18464   3.26975   3.34234   3.34234
 Alpha virt. eigenvalues --    3.40775   3.40775   3.50591   3.52103   3.52103
 Alpha virt. eigenvalues --    3.53543   3.56075   3.57188   3.57188   3.65532
 Alpha virt. eigenvalues --    3.65532   3.70158   3.70158   3.72760   3.84640
 Alpha virt. eigenvalues --    3.88971   3.88971   3.95752   3.96969   3.99679
 Alpha virt. eigenvalues --    3.99679   4.04588   4.07907   4.07907   4.15269
 Alpha virt. eigenvalues --    4.15269   4.20737   4.20737   4.26326   4.27687
 Alpha virt. eigenvalues --    4.33166   4.33166   4.38953   4.41091   4.41091
 Alpha virt. eigenvalues --    4.49923   4.49923   4.50952   4.53929   4.63180
 Alpha virt. eigenvalues --    4.63180   4.70618   4.82711   4.84777   4.84777
 Alpha virt. eigenvalues --    4.88838   5.08891   5.08891   5.17133   5.17133
 Alpha virt. eigenvalues --    5.17772   5.20819   5.40032   5.40032   5.47913
 Alpha virt. eigenvalues --    5.47913   5.49696   5.70296   5.78744   5.78744
 Alpha virt. eigenvalues --    5.83707   6.03105   6.06893   6.06893   6.18420
 Alpha virt. eigenvalues --    6.39974   6.39974   7.05821   7.05821  16.35697
 Alpha virt. eigenvalues --   17.64366
          Condensed to atoms (all electrons):
              1          2          3          4          5          6
     1  C    5.315999   0.380221   0.380221   0.380221   0.139117  -0.011351
     2  H    0.380221   0.301716   0.007674   0.007674  -0.009810  -0.000372
     3  H    0.380221   0.007674   0.301716   0.007674  -0.009810  -0.000573
     4  H    0.380221   0.007674   0.007674   0.301716  -0.009810  -0.000572
     5  N    0.139117  -0.009810  -0.009810  -0.009810   5.565353   0.382181
     6  H   -0.011351  -0.000372  -0.000573  -0.000572   0.382181   0.557262
     7  H   -0.011351  -0.000573  -0.000572  -0.000372   0.382181  -0.036818
     8  H   -0.011351  -0.000572  -0.000372  -0.000573   0.382181  -0.036818
              7          8
     1  C   -0.011351  -0.011351
     2  H   -0.000573  -0.000572
     3  H   -0.000572  -0.000372
     4  H   -0.000372  -0.000573
     5  N    0.382181   0.382181
     6  H   -0.036818  -0.036818
     7  H    0.557262  -0.036818
     8  H   -0.036818   0.557262
 Mulliken atomic charges:
              1
     1  C   -0.561725
     2  H    0.314041
     3  H    0.314041
     4  H    0.314041
     5  N    0.178417
     6  H    0.147062
     7  H    0.147062
     8  H    0.147062
 Sum of Mulliken atomic charges =   1.00000
 Mulliken charges with hydrogens summed into heavy atoms:
              1
     1  C    0.380399
     5  N    0.619601
 Sum of Mulliken charges with hydrogens summed into heavy atoms =   1.00000
 APT atomic charges:
              1
     1  C    0.256090
     2  H    0.066531
     3  H    0.066532
     4  H    0.066531
     5  N   -0.218851
     6  H    0.254389
     7  H    0.254389
     8  H    0.254389
 Sum of APT charges=   1.00000
 APT Atomic charges with hydrogens summed into heavy atoms:
              1
     1  C    0.455684
     2  H    0.000000
     3  H    0.000000
     4  H    0.000000
     5  N    0.544316
     6  H    0.000000
     7  H    0.000000
     8  H    0.000000
 Sum of APT charges=   1.00000
 Electronic spatial extent (au):  <R**2>=             94.8114
 Charge=              1.0000 electrons
 Dipole moment (field-independent basis, Debye):
    X=              0.0000    Y=              0.0000    Z=              2.1673  Tot=              2.1673
 Quadrupole moment (field-independent basis, Debye-Ang):
   XX=            -10.2033   YY=            -10.2033   ZZ=             -6.7586
   XY=              0.0000   XZ=              0.0000   YZ=              0.0000
 Traceless Quadrupole moment (field-independent basis, Debye-Ang):
   XX=             -1.1482   YY=             -1.1482   ZZ=              2.2965
   XY=              0.0000   XZ=              0.0000   YZ=              0.0000
 Octapole moment (field-independent basis, Debye-Ang**2):
  XXX=             -0.4066  YYY=             -0.1167  ZZZ=              5.7282  XYY=              0.4066
  XXY=              0.1167  XXZ=              2.5988  XZZ=              0.0000  YZZ=              0.0000
  YYZ=              2.5988  XYZ=              0.0000
 Hexadecapole moment (field-independent basis, Debye-Ang**3):
 XXXX=            -18.2431 YYYY=            -18.2431 ZZZZ=            -62.7471 XXXY=              0.0000
 XXXZ=             -2.7132 YYYX=              0.0000 YYYZ=             -0.7755 ZZZX=              0.0000
 ZZZY=              0.0000 XXYY=             -6.0810 XXZZ=            -10.9575 YYZZ=            -10.9575
 XXYZ=              0.7755 YYXZ=              2.7132 ZZXY=              0.0000
 N-N= 4.758461005939D+01 E-N=-3.132138783878D+02  KE= 9.555679124634D+01
  Exact polarizability:  19.478   0.000  19.478   0.000   0.000  22.680
 Approx polarizability:  26.040   0.000  26.040   0.000   0.000  27.520
 No NMR shielding tensors so no spin-rotation constants.
 Leave Link  601 at Thu Feb 26 00:45:20 2015, MaxMem= 1073741824 cpu:       1.8
 (Enter /apps/gaussian/g09_c01/g09/l701.exe)
 Compute integral second derivatives.
 ... and contract with generalized density number  0.
 Leave Link  701 at Thu Feb 26 00:45:20 2015, MaxMem= 1073741824 cpu:       2.2
 (Enter /apps/gaussian/g09_c01/g09/l702.exe)
 L702 exits ... SP integral derivatives will be done elsewhere.
 Leave Link  702 at Thu Feb 26 00:45:20 2015, MaxMem= 1073741824 cpu:       0.1
 (Enter /apps/gaussian/g09_c01/g09/l703.exe)
 Compute integral second derivatives, UseDBF=F ICtDFT=           0.
 Integral derivatives from FoFDir, PRISM(SPDF).
 Calling FoFJK, ICntrl=    100127 FMM=F ISym2X=1 I1Cent= 0 IOpClX= 0 NMat=1 NMatS=1 NMatT=0.
 FoFCou: FMM=F IPFlag=           0 FMFlag=      100000 FMFlg1=         800
         NFxFlg=           0 DoJE=F BraDBF=F KetDBF=F FulRan=T
         Omega=  0.000000  0.000000  1.000000  0.000000  0.000000 ICntrl=  100127 IOpCl=  0
         NMat0=    1 NMatS0=    1 NMatT0=    0 NMatD0=    1 NMtDS0=    0 NMtDT0=    0
         I1Cent=           0 NGrid=           0.
 Petite list used in FoFCou.
 Leave Link  703 at Thu Feb 26 00:46:14 2015, MaxMem= 1073741824 cpu:     429.8
 (Enter /apps/gaussian/g09_c01/g09/l716.exe)
 Dipole        =-4.72474978D-16-9.67031766D-15 8.52665515D-01
 Polarizability= 1.94782314D+01-1.51639491D-05 1.94782420D+01
                 2.01833880D-05 3.31501888D-05 2.26799513D+01
 HyperPolar    = 1.65949640D+00-4.72853922D-01-1.65751239D+00
                 4.71594352D-01-2.21011079D+00 9.26340271D-05
                -2.21004350D+00-2.45013408D-04-3.39298781D-05
                 7.24041602D+00
 ***** Axes restored to original set *****
 -------------------------------------------------------------------
 Center     Atomic                   Forces (Hartrees/Bohr)
 Number     Number              X              Y              Z
 -------------------------------------------------------------------
      1        6           0.000000000    0.000000000   -0.000562463
      2        1           0.000268669    0.002892837    0.001020605
      3        1           0.002370936   -0.001679093    0.001020605
      4        1          -0.002639605   -0.001213744    0.001020605
      5        7           0.000000000    0.000000000    0.003619633
      6        1          -0.000368426   -0.003951564   -0.002039661
      7        1           0.003606368    0.001656715   -0.002039661
      8        1          -0.003237942    0.002294848   -0.002039661
 -------------------------------------------------------------------
 Cartesian Forces:  Max     0.003951564 RMS     0.002057482
 Force constants in Cartesian coordinates: 
                1             2             3             4             5 
      1  0.616603D+00
      2  0.000000D+00  0.616603D+00
      3  0.000000D+00  0.000000D+00  0.393595D+00
      4 -0.541807D-01 -0.230308D-01 -0.737781D-02  0.497929D-01
      5 -0.230316D-01 -0.299700D+00 -0.793009D-01  0.246641D-01  0.312718D+00
      6 -0.604234D-02 -0.649345D-01 -0.716815D-01  0.761753D-02  0.818730D-01
      7 -0.218375D+00  0.117829D+00 -0.649876D-01  0.435753D-02 -0.296960D-02
      8  0.117828D+00 -0.135506D+00  0.460397D-01  0.229882D-01 -0.128163D-01
      9 -0.532138D-01  0.377000D-01 -0.716815D-01  0.895928D-02 -0.420673D-02
     10 -0.258266D+00 -0.947969D-01  0.723654D-01  0.145467D-03  0.537765D-03
     11 -0.947977D-01 -0.956150D-01  0.332610D-01 -0.254201D-01 -0.860426D-02
     12  0.592561D-01  0.272344D-01 -0.716816D-01 -0.958124D-02 -0.248255D-02
     13 -0.955230D-01 -0.191024D-05  0.000000D+00 -0.675951D-03  0.698652D-03
     14  0.183581D-05 -0.955227D-01  0.000000D+00  0.697910D-03  0.677003D-02
     15  0.000000D+00  0.000000D+00 -0.142108D+00  0.315681D-03  0.340180D-02
     16  0.192241D-03  0.574395D-03 -0.227042D-03  0.365253D-03  0.576868D-04
     17  0.573660D-03  0.630200D-02 -0.244479D-02  0.576245D-04  0.979407D-03
     18 -0.307266D-02 -0.330069D-01 -0.121477D-01  0.208144D-03  0.224014D-02
     19  0.527173D-02  0.235895D-02  0.223074D-02  0.189437D-03  0.293980D-03
     20  0.235826D-02  0.122252D-02  0.102574D-02  0.727158D-03  0.234646D-03
     21  0.301211D-01  0.138424D-01 -0.121476D-01  0.291023D-03 -0.796109D-03
     22  0.427740D-02 -0.293236D-02 -0.200373D-02  0.614760D-05 -0.251111D-03
     23 -0.293293D-02  0.221685D-02  0.141896D-02 -0.684036D-03  0.418683D-03
     24 -0.270485D-01  0.191643D-01 -0.121477D-01 -0.432607D-03 -0.728874D-03
                6             7             8             9            10 
      6  0.862409D-01
      7  0.264067D-02  0.225627D+00
      8  0.953887D-02 -0.126182D+00  0.136884D+00
      9  0.510179D-02  0.670953D-01 -0.475335D-01  0.862409D-01
     10 -0.836501D-03 -0.171912D-01 -0.105471D-01  0.694057D-02  0.268347D+00
     11  0.986233D-02  0.154108D-01  0.873239D-02 -0.705632D-02  0.101518D+00
     12  0.510179D-02 -0.812278D-02 -0.565559D-02  0.510179D-02 -0.747129D-01
     13 -0.338921D-02  0.430381D-02 -0.357297D-02 -0.298657D-01  0.551341D-02
     14 -0.364427D-01 -0.357380D-02  0.179031D-02  0.211565D-01  0.287473D-02
     15 -0.208194D-01  0.278818D-02 -0.197430D-02 -0.208193D-01 -0.310401D-02
     16  0.170999D-03 -0.218822D-03 -0.491450D-03 -0.688126D-03 -0.893815D-04
     17  0.183313D-02 -0.582716D-04  0.642905D-03  0.531522D-03  0.195957D-03
     18 -0.649811D-02 -0.834962D-03  0.146021D-03  0.127674D-02  0.847527D-03
     19 -0.116249D-03  0.720479D-03  0.271616D-03 -0.729721D-03  0.875800D-03
     20 -0.861695D-03 -0.161309D-03 -0.295649D-03  0.473181D-03  0.237078D-03
     21  0.127674D-02 -0.414920D-03  0.739085D-03  0.127777D-02 -0.204409D-02
     22 -0.449263D-04  0.775937D-03 -0.294733D-03  0.150203D-02  0.665509D-03
     23 -0.868548D-03 -0.294795D-03  0.568723D-03 -0.106465D-02 -0.191190D-04
     24  0.127777D-02  0.183595D-02 -0.130033D-02 -0.649811D-02  0.543939D-03
               11            12            13            14            15 
     11  0.941645D-01
     12 -0.343395D-01  0.862409D-01
     13  0.287549D-02  0.332549D-01  0.701028D+00
     14  0.580824D-03  0.152862D-01  0.000000D+00  0.701028D+00
     15 -0.142754D-02 -0.208193D-01  0.000000D+00  0.000000D+00  0.500290D+00
     16  0.628882D-03  0.774648D-03 -0.665137D-01 -0.259922D-01 -0.962638D-02
     17  0.514212D-03  0.395367D-03 -0.259916D-01 -0.343251D+00 -0.103372D+00
     18 -0.102116D-04  0.127777D-02 -0.103091D-01 -0.110712D+00 -0.985748D-01
     19  0.237140D-03 -0.167303D-02 -0.296576D+00 -0.106835D+00  0.943360D-01
     20  0.468860D-03 -0.768473D-03 -0.106835D+00 -0.113188D+00  0.433494D-01
     21 -0.939812D-03 -0.649811D-02  0.101034D+00  0.464280D-01 -0.985747D-01
     22 -0.452297D-03  0.804375D-03 -0.251557D+00  0.132826D+00 -0.847097D-01
     23 -0.241426D-03  0.330173D-03  0.132827D+00 -0.158208D+00  0.600227D-01
     24  0.650088D-03  0.127674D-02 -0.907248D-01  0.642839D-01 -0.985747D-01
               16            17            18            19            20 
     16  0.618192D-01
     17  0.283944D-01  0.364130D+00
     18  0.105825D-01  0.113656D+00  0.103483D+00
     19 -0.524145D-03 -0.491245D-03 -0.583587D-03  0.313143D+00
     20 -0.319203D-01 -0.119122D-01  0.140179D-01  0.116707D+00  0.112807D+00
     21 -0.134183D-01 -0.409589D-02  0.559172D-02 -0.103721D+00 -0.476634D-01
     22  0.496943D-02 -0.268047D-02  0.316202D-02 -0.230998D-01  0.188863D-01
     23  0.287486D-01 -0.174058D-01  0.136686D-01 -0.125428D-01  0.106635D-01
     24  0.124317D-01 -0.650355D-02  0.559172D-02  0.102563D-01 -0.957267D-02
               21            22            23            24 
     21  0.103483D+00
     22 -0.118481D-01  0.263962D+00
     23 -0.751436D-02 -0.145102D+00  0.161987D+00
     24  0.559172D-02  0.931380D-01 -0.659929D-01  0.103483D+00
 Force constants in internal coordinates: 
                1             2             3             4             5 
      1  0.341490D+00
      2  0.217246D-02  0.341490D+00
      3  0.217248D-02  0.217245D-02  0.341490D+00
      4  0.379807D-02  0.379812D-02  0.379803D-02  0.252839D+00
      5 -0.144478D-02  0.346282D-03  0.346262D-03  0.562467D-02  0.409238D+00
      6  0.346298D-03  0.346296D-03 -0.144470D-02  0.562466D-02  0.288869D-02
      7  0.346258D-03 -0.144476D-02  0.346301D-03  0.562464D-02  0.288869D-02
      8  0.394975D-02  0.395061D-02 -0.135634D-02 -0.255222D-01  0.178567D-04
      9  0.395061D-02 -0.135633D-02  0.394978D-02 -0.255222D-01  0.184142D-04
     10  0.524864D-03 -0.370340D-02 -0.370365D-02  0.268407D-01  0.246409D-02
     11 -0.135634D-02  0.394977D-02  0.395063D-02 -0.255222D-01  0.929625D-03
     12 -0.370355D-02  0.524861D-03 -0.370345D-02  0.268407D-01 -0.173975D-02
     13 -0.370338D-02 -0.370357D-02  0.524978D-03  0.268407D-01 -0.174013D-02
     14  0.501850D-03  0.149172D-03  0.148647D-03  0.135958D-01 -0.508002D-02
     15  0.149154D-03  0.148630D-03  0.501842D-03  0.135959D-01 -0.426071D-02
     16  0.148597D-03  0.501845D-03  0.149216D-03  0.135959D-01 -0.426064D-02
     17 -0.352651D-03 -0.154325D-03 -0.352395D-03 -0.146111D-01  0.716642D-02
     18 -0.352346D-03 -0.352660D-03 -0.154329D-03 -0.146111D-01  0.716912D-02
     19 -0.154312D-03 -0.352374D-03 -0.352697D-03 -0.146111D-01  0.281479D-03
     20  0.000000D+00 -0.292170D-02  0.292161D-02  0.000000D+00  0.179300D-05
     21 -0.314274D-05 -0.291444D-02  0.291796D-02  0.000000D+00  0.273988D-02
     22  0.410042D-05 -0.291808D-02  0.291431D-02  0.000000D+00 -0.273979D-02
     23  0.291792D-02 -0.315108D-05 -0.291448D-02  0.000000D+00  0.435178D-03
     24  0.291429D-02  0.411064D-05 -0.291813D-02  0.000000D+00  0.317326D-02
     25  0.292153D-02  0.000000D+00 -0.292177D-02  0.000000D+00 -0.230640D-02
     26 -0.291807D-02  0.291430D-02  0.413736D-05  0.000000D+00 -0.432039D-03
     27 -0.292170D-02  0.292156D-02  0.000000D+00  0.000000D+00  0.230605D-02
     28 -0.291446D-02  0.291792D-02 -0.316123D-05  0.000000D+00 -0.317362D-02
                6             7             8             9            10 
      6  0.409238D+00
      7  0.288865D-02  0.409238D+00
      8  0.929610D-03  0.184105D-04  0.521979D-01
      9  0.178469D-04  0.929617D-03  0.120917D-01  0.521979D-01
     10 -0.173973D-02 -0.174008D-02 -0.453419D-01 -0.453386D-01  0.131807D+00
     11  0.183952D-04  0.178461D-04  0.120917D-01  0.120917D-01  0.103534D-01
     12 -0.174008D-02  0.246408D-02 -0.453386D-01  0.103534D-01 -0.236654D-01
     13  0.246406D-02 -0.173976D-02  0.103534D-01 -0.453419D-01 -0.236653D-01
     14 -0.426070D-02 -0.426071D-02 -0.386421D-02 -0.386402D-02  0.170447D-01
     15 -0.508006D-02 -0.426066D-02  0.342419D-02 -0.386421D-02 -0.625826D-02
     16 -0.426072D-02 -0.508005D-02 -0.386402D-02  0.342420D-02 -0.626005D-02
     17  0.716917D-02  0.281486D-03  0.605680D-03  0.341425D-02 -0.459278D-02
     18  0.281507D-03  0.716643D-02  0.341425D-02  0.605487D-03 -0.459191D-02
     19  0.716646D-02  0.716915D-02  0.605495D-03  0.605683D-03  0.432030D-02
     20 -0.230641D-02  0.230604D-02 -0.590621D-02  0.590467D-02  0.175534D-05
     21  0.435154D-03 -0.317363D-02 -0.543538D-02  0.496312D-02  0.153594D-02
     22  0.317326D-02 -0.432044D-03 -0.496465D-02  0.543395D-02 -0.153232D-02
     23 -0.317361D-02  0.273989D-02  0.496311D-02  0.470946D-03  0.726768D-02
     24 -0.432041D-03 -0.273978D-02  0.543395D-02 -0.470610D-03  0.880187D-02
     25  0.230606D-02  0.180582D-05  0.590467D-02  0.000000D+00  0.573361D-02
     26 -0.273978D-02  0.317325D-02 -0.470612D-03 -0.496466D-02 -0.726816D-02
     27  0.178578D-05 -0.230642D-02  0.000000D+00 -0.590622D-02 -0.573397D-02
     28  0.273989D-02  0.435164D-03  0.470948D-03 -0.543538D-02 -0.880223D-02
               11            12            13            14            15 
     11  0.521979D-01
     12 -0.453419D-01  0.131807D+00
     13 -0.453386D-01 -0.236653D-01  0.131807D+00
     14  0.342419D-02 -0.625825D-02 -0.626010D-02  0.984568D-01
     15 -0.386402D-02 -0.626011D-02  0.170448D-01 -0.178196D-01  0.984569D-01
     16 -0.386422D-02  0.170447D-01 -0.625831D-02 -0.178196D-01 -0.178196D-01
     17  0.605494D-03  0.432031D-02 -0.459190D-02 -0.402936D-01 -0.402935D-01
     18  0.605682D-03 -0.459278D-02  0.432033D-02 -0.402935D-01  0.130786D-01
     19  0.341426D-02 -0.459192D-02 -0.459277D-02  0.130787D-01 -0.402936D-01
     20  0.000000D+00 -0.573394D-02  0.573357D-02  0.000000D+00 -0.235895D-02
     21  0.470950D-03 -0.880222D-02  0.726766D-02  0.387066D-02  0.151215D-02
     22 -0.470606D-03 -0.726817D-02  0.880186D-02 -0.387133D-02  0.538309D-02
     23 -0.543539D-02  0.153593D-02 -0.880222D-02  0.151214D-02 -0.538293D-02
     24 -0.496466D-02 -0.153234D-02 -0.726814D-02  0.538306D-02 -0.151183D-02
     25 -0.590622D-02  0.170598D-05 -0.573393D-02 -0.235894D-02  0.235911D-02
     26  0.543394D-02  0.880189D-02 -0.153234D-02 -0.151182D-02 -0.387135D-02
     27  0.590467D-02  0.573362D-02  0.174862D-05  0.235910D-02  0.000000D+00
     28  0.496311D-02  0.726766D-02  0.153596D-02 -0.538290D-02  0.387069D-02
               16            17            18            19            20 
     16  0.984568D-01
     17  0.130787D-01  0.537404D-01
     18 -0.402936D-01  0.940450D-02  0.537404D-01
     19 -0.402934D-01  0.940449D-02  0.940450D-02  0.537404D-01
     20  0.235909D-02 -0.722465D-02  0.722479D-02  0.000000D+00  0.143003D-01
     21 -0.538292D-02  0.608520D-02  0.569913D-03 -0.665500D-02  0.347149D-02
     22 -0.151183D-02 -0.569701D-03 -0.608508D-02  0.665486D-02  0.347156D-02
     23  0.387070D-02 -0.665500D-02  0.608519D-02  0.569903D-03  0.397340D-02
     24 -0.387131D-02  0.665486D-02 -0.569689D-03 -0.608507D-02 -0.685540D-02
     25  0.000000D+00  0.000000D+00 -0.722468D-02  0.722478D-02 -0.685533D-02
     26  0.538306D-02 -0.608506D-02  0.665486D-02 -0.569683D-03  0.397346D-02
     27 -0.235895D-02  0.722479D-02  0.000000D+00 -0.722466D-02 -0.685534D-02
     28  0.151214D-02  0.569891D-03 -0.665501D-02  0.608519D-02 -0.685527D-02
               21            22            23            24            25 
     21  0.149190D-01
     22  0.378094D-02  0.149192D-01
     23 -0.716471D-02 -0.747415D-02  0.149191D-01
     24  0.428283D-02 -0.716478D-02  0.378094D-02  0.149192D-01
     25 -0.685527D-02  0.397347D-02  0.347150D-02  0.347156D-02  0.143003D-01
     26 -0.747415D-02 -0.716479D-02  0.428283D-02 -0.716478D-02 -0.685542D-02
     27  0.397339D-02 -0.685542D-02 -0.685528D-02  0.397345D-02 -0.685536D-02
     28 -0.716471D-02  0.428283D-02 -0.716472D-02 -0.747416D-02  0.397339D-02
               26            27            28 
     26  0.149192D-01
     27  0.347157D-02  0.143003D-01
     28  0.378093D-02  0.347150D-02  0.149190D-01
 Leave Link  716 at Thu Feb 26 00:46:15 2015, MaxMem= 1073741824 cpu:       0.2
 (Enter /apps/gaussian/g09_c01/g09/l103.exe)

 GradGradGradGradGradGradGradGradGradGradGradGradGradGradGradGradGradGrad
 Berny optimization.
 Red2BG is reusing G-inverse.
 Internal  Forces:  Max     0.004440725 RMS     0.001840721
 Search for a local minimum.
 Step number   1 out of a maximum of   38
 All quantities printed in internal units (Hartrees-Bohrs-Radians)
 RMS Force = .18407D-02 SwitMx=.10000D-02 MixMth= 1
 Mixed Optimization -- RFO/linear search
 Second derivative matrix not updated -- analytic derivatives used.
 ITU=  0
     Eigenvalues ---    0.00177   0.04735   0.04735   0.04913   0.04913
     Eigenvalues ---    0.11883   0.13057   0.13057   0.13446   0.19360
     Eigenvalues ---    0.19360   0.29335   0.33972   0.33972   0.34650
     Eigenvalues ---    0.40681   0.40681   0.41677
 RFO step:  Lambda=-2.53303449D-04 EMin= 1.76884497D-03
 Linear search not attempted -- first point.
 Iteration  1 RMS(Cart)=  0.00605111 RMS(Int)=  0.00000744
 Iteration  2 RMS(Cart)=  0.00000738 RMS(Int)=  0.00000218
 Iteration  3 RMS(Cart)=  0.00000000 RMS(Int)=  0.00000218
 ClnCor:  largest displacement from symmetrization is 1.91D-08 for atom     8.
 Variable       Old X    -DE/DX   Delta X   Delta X   Delta X     New X
                                 (Linear)    (Quad)   (Total)
    R1        2.05946  -0.00308   0.00000  -0.00879  -0.00879   2.05067
    R2        2.05946  -0.00308   0.00000  -0.00879  -0.00879   2.05067
    R3        2.05946  -0.00308   0.00000  -0.00879  -0.00879   2.05067
    R4        2.86675  -0.00250   0.00000  -0.00806  -0.00806   2.85869
    R5        1.94289  -0.00444   0.00000  -0.01082  -0.01082   1.93207
    R6        1.94289  -0.00444   0.00000  -0.01082  -0.01082   1.93207
    R7        1.94289  -0.00444   0.00000  -0.01082  -0.01082   1.93207
    A1        1.93261   0.00006   0.00000  -0.00063  -0.00063   1.93197
    A2        1.93261   0.00006   0.00000  -0.00063  -0.00063   1.93197
    A3        1.88811  -0.00007   0.00000   0.00067   0.00067   1.88878
    A4        1.93261   0.00006   0.00000  -0.00063  -0.00063   1.93197
    A5        1.88811  -0.00007   0.00000   0.00067   0.00067   1.88878
    A6        1.88811  -0.00007   0.00000   0.00067   0.00067   1.88878
    A7        1.94749  -0.00039   0.00000  -0.00317  -0.00318   1.94431
    A8        1.94749  -0.00039   0.00000  -0.00317  -0.00318   1.94431
    A9        1.94749  -0.00039   0.00000  -0.00317  -0.00318   1.94431
   A10        1.87238   0.00042   0.00000   0.00341   0.00340   1.87578
   A11        1.87238   0.00042   0.00000   0.00341   0.00340   1.87578
   A12        1.87238   0.00042   0.00000   0.00341   0.00340   1.87578
    D1        3.14146   0.00000   0.00000   0.00013   0.00013  -3.14159
    D2       -1.04733   0.00000   0.00000   0.00013   0.00013  -1.04720
    D3        1.04707   0.00000   0.00000   0.00013   0.00013   1.04720
    D4       -1.04733   0.00000   0.00000   0.00013   0.00013  -1.04720
    D5        1.04707   0.00000   0.00000   0.00013   0.00013   1.04720
    D6        3.14146   0.00000   0.00000   0.00013   0.00013  -3.14159
    D7        1.04707   0.00000   0.00000   0.00013   0.00013   1.04720
    D8        3.14146   0.00000   0.00000   0.00013   0.00013  -3.14159
    D9       -1.04733   0.00000   0.00000   0.00013   0.00013  -1.04720
         Item               Value     Threshold  Converged?
 Maximum Force            0.004441     0.000002     NO 
 RMS     Force            0.001841     0.000001     NO 
 Maximum Displacement     0.010628     0.000006     NO 
 RMS     Displacement     0.006051     0.000004     NO 
 Predicted change in Energy=-1.267424D-04
 GradGradGradGradGradGradGradGradGradGradGradGradGradGradGradGradGradGrad

 Leave Link  103 at Thu Feb 26 00:46:15 2015, MaxMem= 1073741824 cpu:       0.1
 (Enter /apps/gaussian/g09_c01/g09/l202.exe)
                          Input orientation:                          
 ---------------------------------------------------------------------
 Center     Atomic      Atomic             Coordinates (Angstroms)
 Number     Number       Type             X           Y           Z
 ---------------------------------------------------------------------
      1          6           0        0.000000    0.000000   -0.800686
      2          1           0       -0.095506   -1.026333   -1.139962
      3          1           0       -0.841078    0.595877   -1.139962
      4          1           0        0.936583    0.430456   -1.139962
      5          7           0        0.000000    0.000000    0.712066
      6          1           0        0.088199    0.947818    1.085135
      7          1           0       -0.864934   -0.397527    1.085135
      8          1           0        0.776735   -0.550291    1.085135
 ---------------------------------------------------------------------
                    Distance matrix (angstroms):
                    1          2          3          4          5
     1  C    0.000000
     2  H    1.085168   0.000000
     3  H    1.085168   1.785341   0.000000
     4  H    1.085168   1.785341   1.785341   0.000000
     5  N    1.512751   2.119549   2.119549   2.119549   0.000000
     6  H    2.112453   2.980281   2.436898   2.436899   1.022408
     7  H    2.112453   2.436898   2.436899   2.980281   1.022408
     8  H    2.112453   2.436899   2.980281   2.436898   1.022408
                    6          7          8
     6  H    0.000000
     7  H    1.648761   0.000000
     8  H    1.648761   1.648761   0.000000
 Stoichiometry    CH6N(1+)
 Framework group  C3[C3(CN),X(H6)]
 Deg. of freedom     6
 Full point group                 C3      NOp   3
 RotChk:  IX=0 Diff= 0.00D+00
 Largest Abelian subgroup         C1      NOp   1
 Largest concise Abelian subgroup C1      NOp   1
                         Standard orientation:                         
 ---------------------------------------------------------------------
 Center     Atomic      Atomic             Coordinates (Angstroms)
 Number     Number       Type             X           Y           Z
 ---------------------------------------------------------------------
      1          6           0        0.000000    0.000000   -0.801521
      2          1           0        1.026333   -0.095506   -1.140797
      3          1           0       -0.595877   -0.841078   -1.140797
      4          1           0       -0.430456    0.936583   -1.140797
      5          7           0        0.000000    0.000000    0.711231
      6          1           0       -0.947818    0.088199    1.084300
      7          1           0        0.397527   -0.864934    1.084300
      8          1           0        0.550291    0.776735    1.084300
 ---------------------------------------------------------------------
 Rotational constants (GHZ):     84.9081057     20.0092117     20.0092117
 Leave Link  202 at Thu Feb 26 00:46:15 2015, MaxMem= 1073741824 cpu:       0.0
 (Enter /apps/gaussian/g09_c01/g09/l301.exe)
 Standard basis: Aug-CC-pVTZ (5D, 7F)
 Ernie: Thresh=  0.10000D-02 Tol=  0.10000D-05 Strict=F.
 Ernie:  6 primitive shells out of 126 were deleted.
 There are   230 symmetry adapted basis functions of A   symmetry.
 Integral buffers will be    131072 words long.
 Raffenetti 2 integral format.
 Two-electron integral symmetry is turned on.
   230 basis functions,   306 primitive gaussians,   260 cartesian basis functions
     9 alpha electrons        9 beta electrons
       nuclear repulsion energy        47.7785375196 Hartrees.
 IExCor=  402 DFT=T Ex+Corr=B3LYP ExCW=0 ScaHFX=  0.200000
 ScaDFX=  0.800000  0.720000  1.000000  0.810000 ScalE2=  1.000000  1.000000
 IRadAn=      5 IRanWt=     -1 IRanGd=            0 ICorTp=0
 NAtoms=    8 NActive=    8 NUniq=    4 SFac= 4.00D+00 NAtFMM=   60 NAOKFM=F Big=F
 Leave Link  301 at Thu Feb 26 00:46:15 2015, MaxMem= 1073741824 cpu:       0.3
 (Enter /apps/gaussian/g09_c01/g09/l302.exe)
 NPDir=0 NMtPBC=     1 NCelOv=     1 NCel=       1 NClECP=     1 NCelD=      1
         NCelK=      1 NCelE2=     1 NClLst=     1 CellRange=     0.0.
 One-electron integrals computed using PRISM.
 NBasis=   230 RedAO= T  NBF=   230
 NBsUse=   230 1.00D-06 NBFU=   230
 Precomputing XC quadrature grid using
 IXCGrd= 2 IRadAn=           5 IRanWt=          -1 IRanGd=           0 AccXCQ= 0.00D+00.
 NRdTot=     686 NPtTot=      184910 NUsed=      189829 NTot=      189861
 NSgBfM=   260   260   260   260   260 NAtAll=     8     8.
 Leave Link  302 at Thu Feb 26 00:46:15 2015, MaxMem= 1073741824 cpu:       1.9
 (Enter /apps/gaussian/g09_c01/g09/l303.exe)
 DipDrv:  MaxL=1.
 Leave Link  303 at Thu Feb 26 00:46:15 2015, MaxMem= 1073741824 cpu:       0.2
 (Enter /apps/gaussian/g09_c01/g09/l401.exe)
 Initial guess read from the read-write file.
 B after Tr=     0.000000    0.000000    0.000000
         Rot=    1.000000    0.000000    0.000000    0.000000 Ang=   0.00 deg.
 Guess basis will be translated and rotated to current coordinates.
 Initial guess orbital symmetries:
       Occupied  (A) (A) (A) (A) (E) (E) (A) (E) (E)
       Virtual   (A) (A) (E) (E) (E) (E) (A) (A) (E) (E) (A) (E)
                 (E) (A) (E) (E) (E) (E) (A) (E) (E) (A) (A) (A)
                 (E) (E) (A) (E) (E) (E) (E) (A) (E) (E) (A) (E)
                 (E) (A) (A) (E) (E) (A) (E) (E) (E) (E) (A) (E)
                 (E) (A) (A) (E) (E) (A) (E) (E) (A) (E) (E) (A)
                 (E) (E) (A) (A) (E) (E) (E) (E) (A) (A) (E) (E)
                 (E) (E) (A) (E) (E) (A) (E) (E) (E) (E) (E) (E)
                 (A) (E) (E) (A) (A) (E) (E) (A) (E) (E) (E) (E)
                 (A) (A) (E) (E) (A) (E) (E) (A) (A) (E) (E) (A)
                 (E) (E) (A) (E) (E) (E) (E) (A) (A) (E) (E) (A)
                 (E) (E) (E) (E) (A) (E) (E) (A) (E) (E) (A) (A)
                 (E) (E) (A) (A) (E) (E) (A) (E) (E) (A) (E) (E)
                 (A) (E) (E) (A) (E) (E) (E) (E) (A) (E) (E) (A)
                 (A) (E) (E) (E) (E) (E) (E) (A) (A) (E) (E) (A)
                 (A) (E) (E) (A) (E) (E) (E) (E) (E) (E) (A) (A)
                 (E) (E) (A) (E) (E) (E) (E) (A) (A) (E) (E) (A)
                 (A) (E) (E) (A) (E) (E) (E) (E) (A) (A) (E) (E)
                 (E) (E) (A) (A) (E) (E) (A) (A) (E) (E) (A) (E)
                 (E) (E) (E) (A) (A)
 The electronic state of the initial guess is 1-A.
 Leave Link  401 at Thu Feb 26 00:46:15 2015, MaxMem= 1073741824 cpu:       1.5
 (Enter /apps/gaussian/g09_c01/g09/l502.exe)
 Closed shell SCF:
 Requested convergence on RMS density matrix=1.00D-08 within 128 cycles.
 Requested convergence on MAX density matrix=1.00D-06.
 Requested convergence on             energy=1.00D-06.
 No special actions if energy rises.
 Using DIIS extrapolation, IDIIS=  1040.
 Integral symmetry usage will be decided dynamically.
       189744 words used for storage of precomputed grid.
 Keep R1 ints in memory in canonical form, NReq=584943911.
 IEnd=      414822 IEndB=      414822 NGot=  1073741824 MDV=   497772060
 LenX=   497772060 LenY=   497704019
 Symmetry not used in FoFDir.
 MinBra= 0 MaxBra= 3 Meth= 1.
 IRaf=       0 NMat=   1 IRICut=       1 DoRegI=T DoRafI=F ISym2E= 0 JSym2E=0.

 Cycle   1  Pass 1  IDiag  1:
 E= -96.2581760367694    
 DIIS: error= 5.68D-04 at cycle   1 NSaved=   1.
 NSaved= 1 IEnMin= 1 EnMin= -96.2581760367694     IErMin= 1 ErrMin= 5.68D-04
 ErrMax= 5.68D-04 EMaxC= 1.00D-01 BMatC= 6.52D-05 BMatP= 6.52D-05
 IDIUse=3 WtCom= 9.94D-01 WtEn= 5.68D-03
 Coeff-Com:  0.100D+01
 Coeff-En:   0.100D+01
 Coeff:      0.100D+01
 Gap=     0.437 Goal=   None    Shift=    0.000
 DSYEVD returned Info=       27026 IAlg= 4 N=   230 NDim=   230 NE2=     2163929 trying DSYEV.
 RMSDP=4.35D-05 MaxDP=2.39D-03              OVMax= 1.86D-03

 Cycle   2  Pass 1  IDiag  1:
 E= -96.2582058568559     Delta-E=       -0.000029820086 Rises=F Damp=F
 DIIS: error= 3.04D-04 at cycle   2 NSaved=   2.
 NSaved= 2 IEnMin= 2 EnMin= -96.2582058568559     IErMin= 2 ErrMin= 3.04D-04
 ErrMax= 3.04D-04 EMaxC= 1.00D-01 BMatC= 1.04D-05 BMatP= 6.52D-05
 IDIUse=3 WtCom= 9.97D-01 WtEn= 3.04D-03
 Coeff-Com:  0.206D+00 0.794D+00
 Coeff-En:   0.000D+00 0.100D+01
 Coeff:      0.205D+00 0.795D+00
 Gap=     0.412 Goal=   None    Shift=    0.000
 DSYEVD returned Info=       27026 IAlg= 4 N=   230 NDim=   230 NE2=     2163929 trying DSYEV.
 RMSDP=1.21D-05 MaxDP=5.02D-04 DE=-2.98D-05 OVMax= 1.19D-03

 Cycle   3  Pass 1  IDiag  1:
 E= -96.2582099684857     Delta-E=       -0.000004111630 Rises=F Damp=F
 DIIS: error= 2.12D-04 at cycle   3 NSaved=   3.
 NSaved= 3 IEnMin= 3 EnMin= -96.2582099684857     IErMin= 3 ErrMin= 2.12D-04
 ErrMax= 2.12D-04 EMaxC= 1.00D-01 BMatC= 5.95D-06 BMatP= 1.04D-05
 IDIUse=3 WtCom= 9.98D-01 WtEn= 2.12D-03
 Coeff-Com:  0.650D-02 0.429D+00 0.564D+00
 Coeff-En:   0.000D+00 0.359D+00 0.641D+00
 Coeff:      0.648D-02 0.429D+00 0.565D+00
 Gap=     0.413 Goal=   None    Shift=    0.000
 DSYEVD returned Info=         461 IAlg= 4 N=   230 NDim=   230 NE2=     2163929 trying DSYEV.
 RMSDP=5.05D-06 MaxDP=1.97D-04 DE=-4.11D-06 OVMax= 5.40D-04

 Cycle   4  Pass 1  IDiag  1:
 E= -96.2582148462036     Delta-E=       -0.000004877718 Rises=F Damp=F
 DIIS: error= 2.65D-05 at cycle   4 NSaved=   4.
 NSaved= 4 IEnMin= 4 EnMin= -96.2582148462036     IErMin= 4 ErrMin= 2.65D-05
 ErrMax= 2.65D-05 EMaxC= 1.00D-01 BMatC= 7.34D-08 BMatP= 5.95D-06
 IDIUse=1 WtCom= 1.00D+00 WtEn= 0.00D+00
 Coeff-Com: -0.142D-03 0.167D+00 0.238D+00 0.595D+00
 Coeff:     -0.142D-03 0.167D+00 0.238D+00 0.595D+00
 Gap=     0.413 Goal=   None    Shift=    0.000
 DSYEVD returned Info=         461 IAlg= 4 N=   230 NDim=   230 NE2=     2163929 trying DSYEV.
 RMSDP=7.46D-07 MaxDP=2.81D-05 DE=-4.88D-06 OVMax= 1.03D-04

 Cycle   5  Pass 1  IDiag  1:
 E= -96.2582149001301     Delta-E=       -0.000000053927 Rises=F Damp=F
 DIIS: error= 8.72D-06 at cycle   5 NSaved=   5.
 NSaved= 5 IEnMin= 5 EnMin= -96.2582149001301     IErMin= 5 ErrMin= 8.72D-06
 ErrMax= 8.72D-06 EMaxC= 1.00D-01 BMatC= 7.13D-09 BMatP= 7.34D-08
 IDIUse=1 WtCom= 1.00D+00 WtEn= 0.00D+00
 Coeff-Com: -0.686D-03 0.533D-01 0.777D-01 0.293D+00 0.577D+00
 Coeff:     -0.686D-03 0.533D-01 0.777D-01 0.293D+00 0.577D+00
 Gap=     0.413 Goal=   None    Shift=    0.000
 DSYEVD returned Info=       27026 IAlg= 4 N=   230 NDim=   230 NE2=     2163929 trying DSYEV.
 RMSDP=1.88D-07 MaxDP=8.06D-06 DE=-5.39D-08 OVMax= 2.36D-05

 Cycle   6  Pass 1  IDiag  1:
 E= -96.2582149059521     Delta-E=       -0.000000005822 Rises=F Damp=F
 DIIS: error= 6.88D-07 at cycle   6 NSaved=   6.
 NSaved= 6 IEnMin= 6 EnMin= -96.2582149059521     IErMin= 6 ErrMin= 6.88D-07
 ErrMax= 6.88D-07 EMaxC= 1.00D-01 BMatC= 7.10D-11 BMatP= 7.13D-09
 IDIUse=1 WtCom= 1.00D+00 WtEn= 0.00D+00
 Coeff-Com: -0.182D-03-0.110D-03-0.546D-05 0.240D-01 0.118D+00 0.858D+00
 Coeff:     -0.182D-03-0.110D-03-0.546D-05 0.240D-01 0.118D+00 0.858D+00
 Gap=     0.413 Goal=   None    Shift=    0.000
 RMSDP=2.47D-08 MaxDP=1.23D-06 DE=-5.82D-09 OVMax= 2.00D-06

 Cycle   7  Pass 1  IDiag  1:
 E= -96.2582149060090     Delta-E=       -0.000000000057 Rises=F Damp=F
 DIIS: error= 5.16D-08 at cycle   7 NSaved=   7.
 NSaved= 7 IEnMin= 7 EnMin= -96.2582149060090     IErMin= 7 ErrMin= 5.16D-08
 ErrMax= 5.16D-08 EMaxC= 1.00D-01 BMatC= 2.96D-13 BMatP= 7.10D-11
 IDIUse=1 WtCom= 1.00D+00 WtEn= 0.00D+00
 Coeff-Com: -0.733D-05-0.425D-03-0.443D-03-0.246D-03 0.208D-02 0.259D-01
 Coeff-Com:  0.973D+00
 Coeff:     -0.733D-05-0.425D-03-0.443D-03-0.246D-03 0.208D-02 0.259D-01
 Coeff:      0.973D+00
 Gap=     0.413 Goal=   None    Shift=    0.000
 DSYEVD returned Info=       27026 IAlg= 4 N=   230 NDim=   230 NE2=     2163929 trying DSYEV.
 RMSDP=3.34D-09 MaxDP=1.39D-07 DE=-5.70D-11 OVMax= 3.01D-07

 SCF Done:  E(RB3LYP) =  -96.2582149060     A.U. after    7 cycles
             Convg  =    0.3337D-08             -V/T =  2.0068
 KE= 9.561044979697D+01 PE=-3.136202584308D+02 EE= 7.397305620830D+01
 Leave Link  502 at Thu Feb 26 00:46:33 2015, MaxMem= 1073741824 cpu:     141.5
 (Enter /apps/gaussian/g09_c01/g09/l801.exe)
 Range of M.O.s used for correlation:     1   230
 NBasis=   230 NAE=     9 NBE=     9 NFC=     0 NFV=     0
 NROrb=    230 NOA=     9 NOB=     9 NVA=   221 NVB=   221

 **** Warning!!: The largest alpha MO coefficient is  0.56182178D+02

 Leave Link  801 at Thu Feb 26 00:46:33 2015, MaxMem= 1073741824 cpu:       0.1
 (Enter /apps/gaussian/g09_c01/g09/l1002.exe)
 Minotr:  Closed shell wavefunction.
          Direct CPHF calculation.
          Differentiating once with respect to electric field.
                with respect to dipole field.
          Electric field/nuclear overlap derivatives assumed to be zero.
          Using symmetry in CPHF.
          Requested convergence is 1.0D-08 RMS, and 1.0D-07 maximum.
          Secondary convergence is 1.0D-12 RMS, and 1.0D-12 maximum.
          NewPWx=F KeepS1=T KeepF1=T KeepIn=T MapXYZ=F SortEE=F KeepMc=T.
          MDV=    1073741756 using IRadAn=       1.
 Generate precomputed XC quadrature information.
          Keep R1 ints in memory in canonical form, NReq=577583429.
 Symmetry not used in FoFDir.
 MinBra= 0 MaxBra= 3 Meth= 1.
 IRaf=       0 NMat=   1 IRICut=       1 DoRegI=T DoRafI=F ISym2E= 0 JSym2E=0.
          Solving linear equations simultaneously, MaxMat=       0.
          There are     3 degrees of freedom in the 1st order CPHF.  IDoFFX=0.
      3 vectors produced by pass  0 Test12= 6.63D-14 3.33D-08 XBig12= 1.06D+01 1.37D+00.
 AX will form     3 AO Fock derivatives at one time.
      3 vectors produced by pass  1 Test12= 6.63D-14 3.33D-08 XBig12= 6.65D-01 3.32D-01.
      3 vectors produced by pass  2 Test12= 6.63D-14 3.33D-08 XBig12= 1.57D-01 1.12D-01.
      3 vectors produced by pass  3 Test12= 6.63D-14 3.33D-08 XBig12= 7.92D-03 2.20D-02.
      3 vectors produced by pass  4 Test12= 6.63D-14 3.33D-08 XBig12= 1.77D-03 8.54D-03.
      3 vectors produced by pass  5 Test12= 6.63D-14 3.33D-08 XBig12= 5.80D-05 2.01D-03.
      3 vectors produced by pass  6 Test12= 6.63D-14 3.33D-08 XBig12= 2.35D-06 4.01D-04.
      3 vectors produced by pass  7 Test12= 6.63D-14 3.33D-08 XBig12= 3.95D-08 7.31D-05.
      1 vectors produced by pass  8 Test12= 6.63D-14 3.33D-08 XBig12= 1.36D-10 3.34D-06.
      1 vectors produced by pass  9 Test12= 6.63D-14 3.33D-08 XBig12= 2.48D-13 1.43D-07.
 Inverted reduced A of dimension    26 with in-core refinement.
 End of Minotr Frequency-dependent properties file   721 does not exist.
 End of Minotr Frequency-dependent properties file   722 does not exist.
 Leave Link 1002 at Thu Feb 26 00:47:13 2015, MaxMem= 1073741824 cpu:     317.5
 (Enter /apps/gaussian/g09_c01/g09/l1101.exe)
 Using compressed storage, NAtomX=     8.
 Will process   9 centers per pass.
 Leave Link 1101 at Thu Feb 26 00:47:13 2015, MaxMem= 1073741824 cpu:       2.0
 (Enter /apps/gaussian/g09_c01/g09/l1102.exe)
 Symmetrizing basis deriv contribution to polar:
 IMax=3 JMax=2 DiffMx= 0.00D+00
 Leave Link 1102 at Thu Feb 26 00:47:13 2015, MaxMem= 1073741824 cpu:       0.2
 (Enter /apps/gaussian/g09_c01/g09/l1110.exe)
 Forming Gx(P) for the SCF density, NAtomX=     8.
 Integral derivatives from FoFDir/FoFCou, PRISM(SPDF).
 Do as many integral derivatives as possible in FoFDir.
 G2DrvN: MDV=    1073741656.
 G2DrvN: will do     9 centers at a time, making    1 passes doing MaxLOS=3.
 Calling FoFCou, ICntrl=  3107 FMM=F I1Cent=   0 AccDes= 0.00D+00.
 FoFCou: FMM=F IPFlag=           0 FMFlag=      100000 FMFlg1=           0
         NFxFlg=           0 DoJE=F BraDBF=F KetDBF=F FulRan=T
         Omega=  0.000000  0.000000  1.000000  0.000000  0.000000 ICntrl=    3107 IOpCl=  0
         NMat0=    1 NMatS0=    1 NMatT0=    0 NMatD0=    4 NMtDS0=    3 NMtDT0=    0
         I1Cent=           0 NGrid=           0.
 Petite list used in FoFCou.
 FoFDir/FoFCou used for L=0 through L=3.
 End of G2Drv Frequency-dependent properties file   721 does not exist.
 End of G2Drv Frequency-dependent properties file   722 does not exist.
 Leave Link 1110 at Thu Feb 26 00:47:57 2015, MaxMem= 1073741824 cpu:     351.2
 (Enter /apps/gaussian/g09_c01/g09/l1002.exe)
 Minotr:  Closed shell wavefunction.
          IDoAtm=11111111
          Direct CPHF calculation.
          Differentiating once with respect to electric field.
                with respect to dipole field.
          Differentiating once with respect to nuclear coordinates.
          Using symmetry in CPHF.
          Requested convergence is 1.0D-08 RMS, and 1.0D-07 maximum.
          Secondary convergence is 1.0D-12 RMS, and 1.0D-12 maximum.
          NewPWx=T KeepS1=F KeepF1=F KeepIn=T MapXYZ=F SortEE=F KeepMc=T.
          MDV=    1073741740 using IRadAn=       1.
 Generate precomputed XC quadrature information.
          Keep R1 ints in memory in canonical form, NReq=577583597.
 Symmetry not used in FoFDir.
 MinBra= 0 MaxBra= 3 Meth= 1.
 IRaf=       0 NMat=   1 IRICut=       1 DoRegI=T DoRafI=F ISym2E= 0 JSym2E=0.
          Solving linear equations simultaneously, MaxMat=       0.
          There are    15 degrees of freedom in the 1st order CPHF.  IDoFFX=4.
 Will reuse    3 saved solutions.
     12 vectors produced by pass  0 Test12= 1.33D-14 6.67D-09 XBig12= 7.53D-02 8.54D-02.
 AX will form    12 AO Fock derivatives at one time.
     12 vectors produced by pass  1 Test12= 1.33D-14 6.67D-09 XBig12= 5.41D-03 2.00D-02.
     12 vectors produced by pass  2 Test12= 1.33D-14 6.67D-09 XBig12= 6.19D-05 1.68D-03.
     12 vectors produced by pass  3 Test12= 1.33D-14 6.67D-09 XBig12= 4.33D-07 1.50D-04.
     12 vectors produced by pass  4 Test12= 1.33D-14 6.67D-09 XBig12= 1.31D-09 9.64D-06.
     11 vectors produced by pass  5 Test12= 1.33D-14 6.67D-09 XBig12= 1.90D-12 4.27D-07.
      1 vectors produced by pass  6 Test12= 1.33D-14 6.67D-09 XBig12= 2.21D-15 1.25D-08.
 Inverted reduced A of dimension    72 with in-core refinement.
 FullF1:  Do perturbations    1 to    15.
 Isotropic polarizability for W=    0.000000       20.33 Bohr**3.
 FullF1:  Do perturbations    1 to     6.
 End of Minotr Frequency-dependent properties file   721 does not exist.
 End of Minotr Frequency-dependent properties file   722 does not exist.
 Leave Link 1002 at Thu Feb 26 00:48:59 2015, MaxMem= 1073741824 cpu:     494.8
 (Enter /apps/gaussian/g09_c01/g09/l701.exe)
 Compute integral second derivatives.
 ... and contract with generalized density number  0.
 Leave Link  701 at Thu Feb 26 00:48:59 2015, MaxMem= 1073741824 cpu:       2.1
 (Enter /apps/gaussian/g09_c01/g09/l702.exe)
 L702 exits ... SP integral derivatives will be done elsewhere.
 Leave Link  702 at Thu Feb 26 00:48:59 2015, MaxMem= 1073741824 cpu:       0.1
 (Enter /apps/gaussian/g09_c01/g09/l703.exe)
 Compute integral second derivatives, UseDBF=F ICtDFT=           0.
 Integral derivatives from FoFDir, PRISM(SPDF).
 Calling FoFJK, ICntrl=    100127 FMM=F ISym2X=1 I1Cent= 0 IOpClX= 0 NMat=1 NMatS=1 NMatT=0.
 FoFCou: FMM=F IPFlag=           0 FMFlag=      100000 FMFlg1=         800
         NFxFlg=           0 DoJE=F BraDBF=F KetDBF=F FulRan=T
         Omega=  0.000000  0.000000  1.000000  0.000000  0.000000 ICntrl=  100127 IOpCl=  0
         NMat0=    1 NMatS0=    1 NMatT0=    0 NMatD0=    1 NMtDS0=    0 NMtDT0=    0
         I1Cent=           0 NGrid=           0.
 Petite list used in FoFCou.
 Leave Link  703 at Thu Feb 26 00:49:53 2015, MaxMem= 1073741824 cpu:     427.3
 (Enter /apps/gaussian/g09_c01/g09/l716.exe)
 Dipole        = 4.12599913D-15 5.92349791D-15 8.48828738D-01
 Polarizability= 1.92725017D+01-1.44126063D-05 1.92725131D+01
                 1.99081234D-05 3.30661335D-05 2.24302304D+01
 HyperPolar    = 1.66140899D+00-4.73755150D-01-1.65577441D+00
                 4.72774918D-01-2.30553145D+00-3.53107064D-05
                -2.30435879D+00 3.25070847D-05 2.17286406D-05
                 6.96024053D+00
 ***** Axes restored to original set *****
 -------------------------------------------------------------------
 Center     Atomic                   Forces (Hartrees/Bohr)
 Number     Number              X              Y              Z
 -------------------------------------------------------------------
      1        6           0.000000000    0.000000000    0.000003510
      2        1          -0.000003308   -0.000035561   -0.000011931
      3        1          -0.000029143    0.000020646   -0.000011931
      4        1           0.000032451    0.000014915   -0.000011931
      5        7           0.000000000    0.000000000   -0.000063075
      6        1           0.000006563    0.000071576    0.000031786
      7        1          -0.000065268   -0.000030105    0.000031786
      8        1           0.000058705   -0.000041471    0.000031786
 -------------------------------------------------------------------
 Cartesian Forces:  Max     0.000071576 RMS     0.000033400
 Force constants in Cartesian coordinates: 
                1             2             3             4             5 
      1  0.627635D+00
      2  0.000000D+00  0.627636D+00
      3  0.000000D+00  0.000000D+00  0.400752D+00
      4 -0.534586D-01 -0.238529D-01 -0.766616D-02  0.489648D-01
      5 -0.238532D-01 -0.307560D+00 -0.823418D-01  0.255049D-01  0.320663D+00
      6 -0.631506D-02 -0.678197D-01 -0.719384D-01  0.790708D-02  0.849335D-01
      7 -0.223377D+00  0.121956D+00 -0.674770D-01  0.442372D-02 -0.303074D-02
      8  0.121956D+00 -0.137641D+00  0.478099D-01  0.232747D-01 -0.129478D-01
      9 -0.555761D-01  0.393788D-01 -0.719384D-01  0.910084D-02 -0.427261D-02
     10 -0.264692D+00 -0.981023D-01  0.751431D-01  0.160999D-03  0.569656D-03
     11 -0.981027D-01 -0.963266D-01  0.345318D-01 -0.257358D-01 -0.868506D-02
     12  0.618912D-01  0.284409D-01 -0.719385D-01 -0.973289D-02 -0.251999D-02
     13 -0.960684D-01  0.000000D+00  0.000000D+00 -0.656866D-03  0.708338D-03
     14  0.000000D+00 -0.960680D-01  0.000000D+00  0.708263D-03  0.689016D-02
     15  0.000000D+00  0.000000D+00 -0.147017D+00  0.324460D-03  0.348782D-02
[...]
      5        7           0.000000000    0.000000000    0.000000005
      6        1          -0.000000048   -0.000000004   -0.000000012
      7        1           0.000000027   -0.000000040   -0.000000012
      8        1           0.000000021    0.000000044   -0.000000012
 -------------------------------------------------------------------
 Cartesian Forces:  Max     0.000000059 RMS     0.000000027
 Force constants in Cartesian coordinates: 
                1             2             3             4             5 
      1  0.627504D+00
      2  0.000000D+00  0.627504D+00
      3  0.000000D+00  0.000000D+00  0.400655D+00
      4 -0.534681D-01 -0.238452D-01 -0.766335D-02  0.489754D-01
      5 -0.238455D-01 -0.307466D+00 -0.823041D-01  0.254971D-01  0.320567D+00
      6 -0.631230D-02 -0.677841D-01 -0.719344D-01  0.790419D-02  0.848956D-01
      7 -0.223316D+00  0.121907D+00 -0.674457D-01  0.442314D-02 -0.303017D-02
      8  0.121907D+00 -0.137618D+00  0.477886D-01  0.232710D-01 -0.129463D-01
      9 -0.555466D-01  0.393586D-01 -0.719345D-01  0.909908D-02 -0.427187D-02
     10 -0.264617D+00 -0.980612D-01  0.751090D-01  0.160653D-03  0.569219D-03
     11 -0.980614D-01 -0.963167D-01  0.345153D-01 -0.257320D-01 -0.868377D-02
     12  0.618589D-01  0.284254D-01 -0.719345D-01 -0.973106D-02 -0.251942D-02
     13 -0.960606D-01  0.000000D+00  0.000000D+00 -0.657053D-03  0.708218D-03
     14  0.000000D+00 -0.960602D-01  0.000000D+00  0.708231D-03  0.688842D-02
     15  0.000000D+00  0.000000D+00 -0.146952D+00  0.324433D-03  0.348646D-02
     16  0.266474D-03  0.572862D-03 -0.224487D-03  0.373710D-03  0.566490D-04
     17  0.572878D-03  0.637115D-02 -0.241334D-02  0.566191D-04  0.976780D-03
     18 -0.312220D-02 -0.335583D-01 -0.126332D-01  0.209582D-03  0.225167D-02
     19  0.534115D-02  0.235696D-02  0.220224D-02  0.189569D-03  0.300341D-03
     20  0.235701D-02  0.129649D-02  0.101224D-02  0.738527D-03  0.238326D-03
     21  0.306234D-01  0.140752D-01 -0.126332D-01  0.294375D-03 -0.803380D-03
     22  0.434883D-02 -0.292996D-02 -0.197778D-02  0.274118D-05 -0.256060D-03
     23 -0.292978D-02  0.228881D-02  0.140103D-02 -0.694256D-03  0.425028D-03
     24 -0.275013D-01  0.194829D-01 -0.126332D-01 -0.437242D-03 -0.735232D-03
                6             7             8             9            10 
      6  0.866584D-01
      7  0.268364D-02  0.230588D+00
      8  0.968706D-02 -0.130351D+00  0.138954D+00
      9  0.515484D-02  0.695697D-01 -0.492930D-01  0.866584D-01
     10 -0.849994D-03 -0.173685D-01 -0.106897D-01  0.704741D-02  0.274750D+00
     11  0.100160D-01  0.156116D-01  0.884535D-02 -0.716763D-02  0.104854D+00
     12  0.515484D-02 -0.824908D-02 -0.574410D-02  0.515484D-02 -0.774739D-01
     13 -0.343409D-02  0.438872D-02 -0.362140D-02 -0.302473D-01  0.561556D-02
     14 -0.369092D-01 -0.362148D-02  0.184270D-02  0.214286D-01  0.291322D-02
     15 -0.210842D-01  0.285713D-02 -0.202421D-02 -0.210842D-01 -0.318171D-02
     16  0.171747D-03 -0.223706D-03 -0.499922D-03 -0.693221D-03 -0.920427D-04
     17  0.184613D-02 -0.617363D-04  0.651601D-03  0.543110D-03  0.201337D-03
     18 -0.658294D-02 -0.842935D-03  0.146754D-03  0.131665D-02  0.855351D-03
     19 -0.123736D-03  0.730956D-03  0.273822D-03 -0.742076D-03  0.875059D-03
     20 -0.871902D-03 -0.164375D-03 -0.303186D-03  0.474041D-03  0.232805D-03
     21  0.131665D-02 -0.418109D-03  0.746279D-03  0.131688D-02 -0.205480D-02
     22 -0.394934D-04  0.776966D-03 -0.289439D-03  0.151292D-02  0.675980D-03
     23 -0.879677D-03 -0.289469D-03  0.573524D-03 -0.107180D-02 -0.195120D-04
     24  0.131688D-02  0.184521D-02 -0.130734D-02 -0.658294D-02  0.548560D-03
               11            12            13            14            15 
     11  0.947922D-01
     12 -0.356026D-01  0.866584D-01
     13  0.291323D-02  0.336813D-01  0.719757D+00
     14  0.615985D-03  0.154806D-01  0.000000D+00  0.719757D+00
     15 -0.146230D-02 -0.210842D-01  0.000000D+00  0.000000D+00  0.505412D+00
     16  0.639533D-03  0.781570D-03 -0.656650D-01 -0.272798D-01 -0.100614D-01
     17  0.519812D-03  0.405636D-03 -0.272798D-01 -0.356364D+00 -0.108145D+00
     18 -0.110467D-04  0.131688D-02 -0.107372D-01 -0.115414D+00 -0.984026D-01
     19  0.232835D-03 -0.168467D-02 -0.307314D+00 -0.112236D+00  0.986869D-01
     20  0.475431D-03 -0.774325D-03 -0.112237D+00 -0.114715D+00  0.453590D-01
     21 -0.944333D-03 -0.658294D-02  0.105320D+00  0.484081D-01 -0.984026D-01
     22 -0.457698D-03  0.816958D-03 -0.260064D+00  0.139516D+00 -0.886256D-01
     23 -0.248085D-03  0.328792D-03  0.139516D+00 -0.161965D+00  0.627859D-01
     24  0.656626D-03  0.131665D-02 -0.945826D-01  0.670055D-01 -0.984026D-01
               16            17            18            19            20 
     16  0.606373D-01
     17  0.297167D-01  0.377299D+00
     18  0.110225D-01  0.118482D+00  0.103685D+00
     19 -0.424718D-03 -0.429406D-03 -0.616448D-03  0.323869D+00
     20 -0.323581D-01 -0.119508D-01  0.142304D-01  0.122260D+00  0.114067D+00
     21 -0.136289D-01 -0.413756D-02  0.565028D-02 -0.108120D+00 -0.496954D-01
     22  0.512813D-02 -0.277653D-02  0.323123D-02 -0.232666D-01  0.191703D-01
     23  0.291521D-01 -0.175036D-01  0.138718D-01 -0.127584D-01  0.108912D-01
     24  0.126321D-01 -0.658136D-02  0.565028D-02  0.103977D-01 -0.973422D-02
               21            22            23            24 
     21  0.103685D+00
     22 -0.120157D-01  0.272398D+00
     23 -0.764908D-02 -0.151977D+00  0.165538D+00
     24  0.565028D-02  0.970974D-01 -0.687870D-01  0.103685D+00
 Red2BG is reusing G-inverse.
 Force constants in internal coordinates: 
                1             2             3             4             5 
      1  0.350485D+00
      2  0.215797D-02  0.350485D+00
      3  0.215799D-02  0.215796D-02  0.350485D+00
      4  0.382006D-02  0.382011D-02  0.382002D-02  0.259953D+00
      5 -0.144121D-02  0.346410D-03  0.346135D-03  0.569460D-02  0.424117D+00
      6  0.346426D-03  0.346171D-03 -0.144112D-02  0.569460D-02  0.285543D-02
      7  0.346131D-03 -0.144119D-02  0.346430D-03  0.569457D-02  0.285543D-02
      8  0.396198D-02  0.396336D-02 -0.135042D-02 -0.257039D-01  0.314707D-04
      9  0.396335D-02 -0.135041D-02  0.396201D-02 -0.257039D-01  0.315568D-04
     10  0.550414D-03 -0.372700D-02 -0.372746D-02  0.269902D-01  0.246174D-02
     11 -0.135042D-02  0.396200D-02  0.396338D-02 -0.257039D-01  0.948467D-03
     12 -0.372736D-02  0.550410D-03 -0.372705D-02  0.269901D-01 -0.176233D-02
     13 -0.372698D-02 -0.372738D-02  0.550529D-03  0.269901D-01 -0.176153D-02
     14  0.525020D-03  0.138501D-03  0.138428D-03  0.140544D-01 -0.508136D-02
     15  0.138481D-03  0.138410D-03  0.525012D-03  0.140546D-01 -0.430377D-02
     16  0.138375D-03  0.525015D-03  0.138547D-03  0.140545D-01 -0.430365D-02
     17 -0.355301D-03 -0.146394D-03 -0.355229D-03 -0.150182D-01  0.717738D-02
     18 -0.355177D-03 -0.355312D-03 -0.146399D-03 -0.150182D-01  0.718001D-02
     19 -0.146380D-03 -0.355206D-03 -0.355351D-03 -0.150182D-01  0.270011D-03
     20  0.000000D+00 -0.293423D-02  0.293412D-02  0.000000D+00  0.181479D-05
     21  0.000000D+00 -0.293225D-02  0.293315D-02  0.000000D+00  0.275025D-02
     22  0.181470D-05 -0.293320D-02  0.293211D-02  0.000000D+00 -0.275004D-02
     23  0.293311D-02  0.000000D+00 -0.293229D-02  0.000000D+00  0.438214D-03
     24  0.293209D-02  0.182575D-05 -0.293326D-02  0.000000D+00  0.318665D-02
     25  0.293404D-02  0.000000D+00 -0.293430D-02  0.000000D+00 -0.231365D-02
     26 -0.293320D-02  0.293209D-02  0.185365D-05  0.000000D+00 -0.435143D-03
     27 -0.293422D-02  0.293407D-02  0.000000D+00  0.000000D+00  0.231329D-02
     28 -0.293227D-02  0.293311D-02  0.000000D+00  0.000000D+00 -0.318700D-02
                6             7             8             9            10 
      6  0.424117D+00
      7  0.285539D-02  0.424117D+00
      8  0.948451D-03  0.315536D-04  0.525149D-01
      9  0.314611D-04  0.948459D-03  0.121659D-01  0.525149D-01
     10 -0.176231D-02 -0.176148D-02 -0.455917D-01 -0.455890D-01  0.132445D+00
     11  0.315377D-04  0.314596D-04  0.121659D-01  0.121659D-01  0.104884D-01
     12 -0.176147D-02  0.246173D-02 -0.455890D-01  0.104884D-01 -0.238572D-01
     13  0.246171D-02 -0.176234D-02  0.104884D-01 -0.455917D-01 -0.238572D-01
     14 -0.430372D-02 -0.430377D-02 -0.388433D-02 -0.388470D-02  0.171569D-01
     15 -0.508140D-02 -0.430368D-02  0.346627D-02 -0.388433D-02 -0.631930D-02
     16 -0.430377D-02 -0.508138D-02 -0.388470D-02  0.346628D-02 -0.631948D-02
     17  0.718006D-02  0.270018D-03  0.596013D-03  0.340578D-02 -0.457759D-02
     18  0.270041D-03  0.717739D-02  0.340577D-02  0.595987D-03 -0.457761D-02
     19  0.717742D-02  0.718004D-02  0.595996D-03  0.596017D-03  0.432730D-02
     20 -0.231366D-02  0.231329D-02 -0.591966D-02  0.591845D-02  0.135741D-05
     21  0.438189D-03 -0.318701D-02 -0.544616D-02  0.497172D-02  0.154231D-02
     22  0.318665D-02 -0.435147D-03 -0.497293D-02  0.544523D-02 -0.153946D-02
     23 -0.318699D-02  0.275027D-02  0.497172D-02  0.473522D-03  0.732181D-02
     24 -0.435145D-03 -0.275003D-02  0.544522D-02 -0.473209D-03  0.886277D-02
     25  0.231331D-02  0.182866D-05  0.591845D-02  0.000000D+00  0.578099D-02
     26 -0.275004D-02  0.318664D-02 -0.473211D-03 -0.497294D-02 -0.732234D-02
     27  0.180694D-05 -0.231366D-02  0.000000D+00 -0.591967D-02 -0.578138D-02
     28  0.275026D-02  0.438200D-03  0.473524D-03 -0.544616D-02 -0.886315D-02
               11            12            13            14            15 
     11  0.525149D-01
     12 -0.455917D-01  0.132445D+00
     13 -0.455890D-01 -0.238572D-01  0.132445D+00
     14  0.346627D-02 -0.631929D-02 -0.631952D-02  0.996948D-01
     15 -0.388470D-02 -0.631954D-02  0.171569D-01 -0.178980D-01  0.996949D-01
     16 -0.388433D-02  0.171569D-01 -0.631936D-02 -0.178980D-01 -0.178980D-01
     17  0.595994D-03  0.432732D-02 -0.457759D-02 -0.405838D-01 -0.405838D-01
     18  0.596015D-03 -0.457758D-02  0.432733D-02 -0.405837D-01  0.128872D-01
     19  0.340578D-02 -0.457761D-02 -0.457757D-02  0.128872D-01 -0.405838D-01
     20  0.000000D+00 -0.578135D-02  0.578095D-02  0.000000D+00 -0.243547D-02
     21  0.473525D-03 -0.886314D-02  0.732178D-02  0.396278D-02  0.152766D-02
     22 -0.473205D-03 -0.732235D-02  0.886276D-02 -0.396337D-02  0.549073D-02
     23 -0.544616D-02  0.154231D-02 -0.886314D-02  0.152765D-02 -0.549075D-02
     24 -0.497294D-02 -0.153948D-02 -0.732231D-02  0.549070D-02 -0.152761D-02
     25 -0.591967D-02  0.130613D-05 -0.578134D-02 -0.243546D-02  0.243546D-02
     26  0.544522D-02  0.886279D-02 -0.153948D-02 -0.152760D-02 -0.396340D-02
     27  0.591845D-02  0.578100D-02  0.135005D-05  0.243544D-02  0.000000D+00
     28  0.497172D-02  0.732179D-02  0.154233D-02 -0.549071D-02  0.396281D-02
               16            17            18            19            20 
     16  0.996949D-01
     17  0.128872D-01  0.539149D-01
     18 -0.405838D-01  0.952363D-02  0.539149D-01
     19 -0.405837D-01  0.952362D-02  0.952363D-02  0.539149D-01
     20  0.243543D-02 -0.727233D-02  0.727251D-02  0.000000D+00  0.143826D-01
     21 -0.549074D-02  0.613078D-02  0.570982D-03 -0.670145D-02  0.348861D-02
     22 -0.152762D-02 -0.570776D-03 -0.613061D-02  0.670166D-02  0.348875D-02
     23  0.396282D-02 -0.670145D-02  0.613077D-02  0.570972D-03  0.400044D-02
     24 -0.396336D-02  0.670166D-02 -0.570764D-03 -0.613061D-02 -0.689355D-02
     25  0.000000D+00  0.000000D+00 -0.727236D-02  0.727250D-02 -0.689341D-02
     26  0.549070D-02 -0.613059D-02  0.670167D-02 -0.570757D-03  0.400057D-02
     27 -0.243547D-02  0.727251D-02  0.000000D+00 -0.727233D-02 -0.689342D-02
     28  0.152765D-02  0.570960D-03 -0.670146D-02  0.613077D-02 -0.689328D-02
               21            22            23            24            25 
     21  0.150059D-01
     22  0.380039D-02  0.150062D-01
     23 -0.720506D-02 -0.751684D-02  0.150059D-01
     24  0.431222D-02 -0.720520D-02  0.380039D-02  0.150062D-01
     25 -0.689327D-02  0.400059D-02  0.348861D-02  0.348875D-02  0.143826D-01
     26 -0.751684D-02 -0.720521D-02  0.431222D-02 -0.720520D-02 -0.689357D-02
     27  0.400044D-02 -0.689357D-02 -0.689328D-02  0.400057D-02 -0.689343D-02
     28 -0.720506D-02  0.431222D-02 -0.720507D-02 -0.751685D-02  0.400043D-02
               26            27            28 
     26  0.150062D-01
     27  0.348876D-02  0.143826D-01
     28  0.380039D-02  0.348861D-02  0.150059D-01
 Leave Link  716 at Thu Feb 26 00:56:58 2015, MaxMem= 1073741824 cpu:       0.1
 (Enter /apps/gaussian/g09_c01/g09/l9999.exe)
 1\1\GINC-CX1-1-4-4\Freq\RB3LYP\Aug-CC-pVTZ\C1H6N1(1+)\JMF02\26-Feb-201
 5\0\\#p opt(VeryTight,CalcAll,Raman) Integral(Grid=UltraFine) b3lyp/AU
 G-cc-pVTZ\\Autjob by noodles.sh | Great noodly basis sets\\1,1\C,-0.00
 00000526,0.0000000526,-0.8007356019\H,-0.0955191384,-1.0263889423,-1.1
 400163129\H,-0.8411194535,0.5959165049,-1.1400163129\H,0.936638434,0.4
 304725953,-1.1400163129\N,-0.0000000526,0.0000000526,0.7120711746\H,0.
 0881971315,0.9478977139,1.0852041125\H,-0.8650020995,-0.397567776,1.08
 52041125\H,0.7768048102,-0.55032978,1.0852041125\\Version=EM64L-G09Rev
 C.01\State=1-A\HF=-96.2582149\RMSD=1.183e-09\RMSF=2.740e-08\ZeroPoint=
 0.0790628\Thermal=0.0825392\Dipole=0.,0.,0.8488827\DipoleDeriv=0.09949
 25,0.000004,0.0000052,0.0000011,0.0994916,0.0000032,-0.0000013,-0.0000
 015,0.560292,0.1175895,-0.0078085,0.0010246,-0.0078064,0.0344217,0.011
 0178,0.0032466,0.0348767,0.0483689,0.0619756,0.039915,0.0090297,0.0399
 162,0.090037,-0.006397,0.0285809,-0.0202501,0.0483681,0.0484511,-0.032
 1104,-0.0100571,-0.0321086,0.1035588,-0.0046228,-0.0318271,-0.0146263,
 0.0483691,-0.1401213,0.0000026,0.0000029,-0.0000007,-0.1401245,0.00000
 19,-0.0000014,-0.0000008,-0.3753987,0.2439879,0.0050455,0.0041438,0.00
 50469,0.2977543,0.0445348,0.003023,0.0324882,0.223334,0.2886828,0.0207
 571,-0.0406406,0.0207588,0.2530598,-0.0186792,-0.0296461,-0.0136254,0.
 2233342,0.2799426,-0.0258045,0.0364955,-0.0258044,0.2617999,-0.0258563
 ,0.026624,-0.018862,0.2233333\Polar=19.2754513,0.0000144,19.2754399,0.
 0000331,-0.0000199,22.4336854\PolarDeriv=-0.8908258,-3.1157808,0.89038
 08,2.2188774,0.000107,-0.000188,-3.1160632,0.8907291,3.1155722,0.00005
 28,2.2189036,-0.0001508,2.4746501,0.0000142,2.4750022,0.0000222,0.0001
 368,-3.6490577,-0.2064596,-0.619621,-0.4573297,-0.8208594,-0.1119393,-
 0.2248099,-1.0414602,-0.4194787,-6.0933991,-0.1118456,-2.0108851,-2.41
 25089,-0.7821022,-0.0825734,-1.6577753,-0.1351474,-1.4512131,-1.481160
 3,-3.9398328,1.8667963,-1.9080965,-1.6164653,0.5707397,-1.9764382,2.11
 05603,-1.5612136,2.0318707,0.5709955,-1.2148573,1.4009471,-1.3674535,0
 .4204423,-1.0727572,-1.1893273,0.8424303,-1.4817178,4.9641138,1.612183
 1,1.5482226,-1.8094834,-0.4591637,2.201303,1.7904277,1.1631004,1.20266
 66,-0.4590291,-1.0210552,1.0118637,-1.5105679,-0.3380668,-0.9299328,1.
 3241947,0.6087894,-1.4814171,0.6194148,2.1665586,-0.6196651,-2.2109999
 ,0.0006334,0.0000937,2.1666479,-0.6194421,-2.1668882,-0.0003879,-2.210
 9342,0.0001193,-1.903048,0.0003043,-1.9029973,0.0001633,-0.0000286,2.4
 083639,0.1960787,0.6411108,0.3221411,0.7702158,0.1204859,0.2273489,0.8
 698649,0.3010819,4.698926,0.1205927,2.055505,2.4442436,0.5765009,0.084
 8245,1.4824294,0.1403055,1.5092372,1.8948379,-3.8892409,-1.1725472,-1.
 1925855,1.8386541,0.4960975,-2.2301092,-1.2687822,-0.9839806,-1.066969
 2,0.4964587,0.9872187,-1.0255046,1.3297449,0.3498855,0.7293653,-1.3771
 745,-0.6332603,1.8949708,3.146754,-1.3787256,1.4168178,1.6300304,-0.61
 69666,2.0027919,-1.5112287,1.2291747,-1.721681,-0.6168505,1.1961238,-1
 .4190689,1.1823531,-0.4347904,0.8766651,1.2369787,-0.8761,1.8953426\Hy
 perPolar=0.4727886,1.6550511,-0.4737657,-1.6606904,-2.3022182,0.000035
 4,-2.303391,0.0000219,-0.0000326,6.9645384\PG=C03 [C3(C1N1),X(H6)]\NIm
 ag=0\\0.62750406,-0.00000035,0.62750442,-0.00000003,0.00000018,0.40065
 523,-0.05346811,-0.02384525,-0.00766335,0.04897541,-0.02384550,-0.3074
 6574,-0.08230406,0.02549712,0.32056713,-0.00631230,-0.06778405,-0.0719
 3443,0.00790419,0.08489562,0.08665841,-0.22331557,0.12190691,-0.067445
 66,0.00442314,-0.00303017,0.00268364,0.23058805,0.12190685,-0.13761827
 ,0.04778862,0.02327105,-0.01294625,0.00968706,-0.13035123,0.13895450,-
 0.05554662,0.03935858,-0.07193446,0.00909908,-0.00427187,0.00515484,0.
 06956967,-0.04929304,0.08665841,-0.26461668,-0.09806117,0.07510899,0.0
 0016065,0.00056922,-0.00084999,-0.01736847,-0.01068966,0.00704741,0.27
 475036,-0.09806143,-0.09631672,0.03451530,-0.02573199,-0.00868377,0.01
 001596,0.01561155,0.00884535,-0.00716763,0.10485411,0.09479218,0.06185
 887,0.02842540,-0.07193453,-0.00973106,-0.00251942,0.00515484,-0.00824
 908,-0.00574410,0.00515484,-0.07747386,-0.03560258,0.08665841,-0.09606
 057,0.,0.00000013,-0.00065705,0.00070822,-0.00343409,0.00438872,-0.003
 62140,-0.03024728,0.00561556,0.00291323,0.03368134,0.71975710,-0.00000
 008,-0.09606019,0.00000027,0.00070823,0.00688842,-0.03690919,-0.003621
 48,0.00184270,0.02142859,0.00291322,0.00061599,0.01548058,0.00000001,0
 .71975680,0.00000033,0.00000020,-0.14695206,0.00032443,0.00348646,-0.0
 2108425,0.00285713,-0.00202421,-0.02108419,-0.00318171,-0.00146230,-0.
 02108417,0.00000015,0.00000008,0.50541226,0.00026647,0.00057286,-0.000
 22449,0.00037371,0.00005665,0.00017175,-0.00022371,-0.00049992,-0.0006
 9322,-0.00009204,0.00063953,0.00078157,-0.06566499,-0.02727984,-0.0100
 6141,0.06063730,0.00057288,0.00637115,-0.00241334,0.00005662,0.0009767
 8,0.00184613,-0.00006174,0.00065160,0.00054311,0.00020134,0.00051981,0
 .00040564,-0.02727978,-0.35636412,-0.10814497,0.02971667,0.37729902,-0
 .00312220,-0.03355828,-0.01263324,0.00020958,0.00225167,-0.00658294,-0
 .00084293,0.00014675,0.00131665,0.00085535,-0.00001105,0.00131688,-0.0
 1073723,-0.11541375,-0.09840265,0.01102254,0.11848233,0.10368475,0.005
 34115,0.00235696,0.00220224,0.00018957,0.00030034,-0.00012374,0.000730
 96,0.00027382,-0.00074208,0.00087506,0.00023284,-0.00168467,-0.3073144
 4,-0.11223645,0.09868690,-0.00042472,-0.00042941,-0.00061645,0.3238689
 8,0.00235701,0.00129649,0.00101224,0.00073853,0.00023833,-0.00087190,-
 0.00016437,-0.00030319,0.00047404,0.00023281,0.00047543,-0.00077433,-0
 .11223656,-0.11471474,0.04535902,-0.03235806,-0.01195077,0.01423044,0.
 12226021,0.11406734,0.03062341,0.01407524,-0.01263321,0.00029437,-0.00
 080338,0.00131665,-0.00041811,0.00074628,0.00131688,-0.00205480,-0.000
 94433,-0.00658294,0.10531973,0.04840810,-0.09840256,-0.01362893,-0.004
 13756,0.00565028,-0.10811997,-0.04969536,0.10368475,0.00434883,-0.0029
 2996,-0.00197778,0.00000274,-0.00025606,-0.00003949,0.00077697,-0.0002
 8944,0.00151292,0.00067598,-0.00045770,0.00081696,-0.26006438,0.139516
 32,-0.08862558,0.00512813,-0.00277653,0.00323123,-0.02326664,0.0191702
 7,-0.01201570,0.27239820,-0.00292978,0.00228881,0.00140103,-0.00069426
 ,0.00042503,-0.00087968,-0.00028947,0.00057352,-0.00107180,-0.00001951
 ,-0.00024808,0.00032879,0.13951633,-0.16196485,0.06278586,0.02915212,-
 0.01750362,0.01387178,-0.01275839,0.01089116,-0.00764908,-0.15197688,0
 .16553812,-0.02750131,0.01948292,-0.01263322,-0.00043724,-0.00073523,0
 .00131688,0.00184521,-0.00130734,-0.00658294,0.00054856,0.00065663,0.0
 0131665,-0.09458261,0.06700550,-0.09840262,0.01263214,-0.00658136,0.00
 565028,0.01039769,-0.00973422,0.00565028,0.09709743,-0.06878696,0.1036
 8475\\0.,0.,-0.00000006,-0.00000004,0.00000002,0.,0.00000004,0.0000000
 3,0.,0.,-0.00000005,0.,0.,0.,0.,0.00000005,0.,0.00000001,-0.00000003,0
 .00000004,0.00000001,-0.00000002,-0.00000004,0.00000001\\\@


 THERE IS SOMETHING FASCINATING ABOUT SCIENCE.
 ONE GETS SUCH WHOLESALE CONJECTURE OUT OF SUCH TRIFLING INVESTMENTS.

                                                       -- MARK TWAIN
 Job cpu time:  0 days  1 hours 55 minutes 10.4 seconds.
 File lengths (MBytes):  RWF=     43 Int=      0 D2E=      0 Chk=      4 Scr=      1
 Normal termination of Gaussian 09 at Thu Feb 26 00:56:59 2015.
