 Entering Gaussian System, Link 0=g03
 Input=MA_b3lyp_AUG-cc-pVQZ.com
 Output=MA_b3lyp_AUG-cc-pVQZ.log
 Initial command:
 /apps/gaussian/g09_c01/g09/l1.exe /tmp/pbs.8910293.cx1b/Gau-20579.inp -scrdir=/tmp/pbs.8910293.cx1b/
 Entering Link 1 = /apps/gaussian/g09_c01/g09/l1.exe PID=     20584.
  
 Copyright (c) 1988,1990,1992,1993,1995,1998,2003,2009,2011,
            Gaussian, Inc.  All Rights Reserved.
  
 This is part of the Gaussian(R) 09 program.  It is based on
 the Gaussian(R) 03 system (copyright 2003, Gaussian, Inc.),
 the Gaussian(R) 98 system (copyright 1998, Gaussian, Inc.),
 the Gaussian(R) 94 system (copyright 1995, Gaussian, Inc.),
 the Gaussian 92(TM) system (copyright 1992, Gaussian, Inc.),
 the Gaussian 90(TM) system (copyright 1990, Gaussian, Inc.),
 the Gaussian 88(TM) system (copyright 1988, Gaussian, Inc.),
 the Gaussian 86(TM) system (copyright 1986, Carnegie Mellon
 University), and the Gaussian 82(TM) system (copyright 1983,
 Carnegie Mellon University). Gaussian is a federally registered
 trademark of Gaussian, Inc.
  
 This software contains proprietary and confidential information,
 including trade secrets, belonging to Gaussian, Inc.
  
 This software is provided under written license and may be
 used, copied, transmitted, or stored only in accord with that
 written license.
  
 The following legend is applicable only to US Government
 contracts under FAR:
  
                    RESTRICTED RIGHTS LEGEND
  
 Use, reproduction and disclosure by the US Government is
 subject to restrictions as set forth in subparagraphs (a)
 and (c) of the Commercial Computer Software - Restricted
 Rights clause in FAR 52.227-19.
  
 Gaussian, Inc.
 340 Quinnipiac St., Bldg. 40, Wallingford CT 06492
  
  
 ---------------------------------------------------------------
 Warning -- This program may not be used in any manner that
 competes with the business of Gaussian, Inc. or will provide
 assistance to any competitor of Gaussian, Inc.  The licensee
 of this program is prohibited from giving any competitor of
 Gaussian, Inc. access to this program.  By using this program,
 the user acknowledges that Gaussian, Inc. is engaged in the
 business of creating and licensing software in the field of
 computational chemistry and represents and warrants to the
 licensee that it is not a competitor of Gaussian, Inc. and that
 it will not use this program in any manner prohibited above.
 ---------------------------------------------------------------
  

 Cite this work as:
 Gaussian 09, Revision C.01,
 M. J. Frisch, G. W. Trucks, H. B. Schlegel, G. E. Scuseria, 
 M. A. Robb, J. R. Cheeseman, G. Scalmani, V. Barone, B. Mennucci, 
 G. A. Petersson, H. Nakatsuji, M. Caricato, X. Li, H. P. Hratchian, 
 A. F. Izmaylov, J. Bloino, G. Zheng, J. L. Sonnenberg, M. Hada, 
 M. Ehara, K. Toyota, R. Fukuda, J. Hasegawa, M. Ishida, T. Nakajima, 
 Y. Honda, O. Kitao, H. Nakai, T. Vreven, J. A. Montgomery, Jr., 
 J. E. Peralta, F. Ogliaro, M. Bearpark, J. J. Heyd, E. Brothers, 
 K. N. Kudin, V. N. Staroverov, T. Keith, R. Kobayashi, J. Normand, 
 K. Raghavachari, A. Rendell, J. C. Burant, S. S. Iyengar, J. Tomasi, 
 M. Cossi, N. Rega, J. M. Millam, M. Klene, J. E. Knox, J. B. Cross, 
 V. Bakken, C. Adamo, J. Jaramillo, R. Gomperts, R. E. Stratmann, 
 O. Yazyev, A. J. Austin, R. Cammi, C. Pomelli, J. W. Ochterski, 
 R. L. Martin, K. Morokuma, V. G. Zakrzewski, G. A. Voth, 
 P. Salvador, J. J. Dannenberg, S. Dapprich, A. D. Daniels, 
 O. Farkas, J. B. Foresman, J. V. Ortiz, J. Cioslowski, 
 and D. J. Fox, Gaussian, Inc., Wallingford CT, 2010.
 
 ******************************************
 Gaussian 09:  EM64L-G09RevC.01 23-Sep-2011
                26-Feb-2015 
 ******************************************
 %Chk=MA_b3lyp_AUG-cc-pVQZ.chk
 %Mem=8Gb
 %nproc=8
 Will use up to    8 processors via shared memory.
 ----------------------------------------------------------------------
 #p opt(VeryTight,CalcAll,Raman) Integral(Grid=UltraFine) b3lyp/AUG-cc-
 pVQZ
 ----------------------------------------------------------------------
 1/7=1,10=4,14=-1,18=20,19=15,26=3,38=1/1,3;
 2/9=110,12=2,17=6,18=5,40=1/2;
 3/5=16,6=2,7=10,11=2,16=1,25=1,30=1,71=2,74=-5,75=-5/1,2,3;
 4//1;
 5/5=2,38=5/2;
 8/6=4,10=90,11=11/1;
 10/13=10,15=4/2;
 11/6=3,8=1,9=11,15=111,16=1/1,2,10;
 10/6=1/2;
 6/7=2,8=2,9=2,10=2,18=1,28=1/1;
 7/10=1,25=1/1,2,3,16;
 1/7=1,10=4,14=-1,18=20,19=15/3(3);
 2/9=110/2;
 7/8=1,9=1,25=1,44=-1/16;
 99//99;
 2/9=110/2;
 3/5=16,6=2,7=10,11=2,16=1,25=1,30=1,71=2,74=-5,75=-5/1,2,3;
 4/5=5,16=3/1;
 5/5=2,38=5/2;
 8/6=4,10=90,11=11/1;
 10/13=10,15=4/2;
 11/6=3,8=1,9=11,15=111,16=1/1,2,10;
 10/6=1/2;
 7/10=1,25=1/1,2,3,16;
 1/7=1,10=4,14=-1,18=20,19=15/3(-9);
 2/9=110/2;
 6/7=2,8=2,9=2,10=2,18=1,19=2,28=1/1;
 7/8=1,9=1,25=1,44=-1/16;
 99//99;
 Leave Link    1 at Thu Feb 26 00:41:36 2015, MaxMem= 1073741824 cpu:       0.3
 (Enter /apps/gaussian/g09_c01/g09/l101.exe)
 ----------------------------------------------
 Autjob by noodles.sh | Great noodly basis sets
 ----------------------------------------------
 Charge =  1 Multiplicity = 1
 Symbolic Z-Matrix:
 C                     0.        0.       -0.80446 
 H                    -0.09587  -1.03096  -1.1445 
 H                    -0.8449    0.59851  -1.1445 
 H                     0.94078   0.43245  -1.1445 
 N                     0.        0.        0.71256 
 H                     0.08865   0.95193   1.09076 
 H                    -0.86872  -0.39919   1.09076 
 H                     0.78007  -0.55274   1.09076 
 
 NAtoms=      8 NQM=        0 NQMF=       0 NMMI=      8 NMMIF=      0
                NMic=       0 NMicF=      0.
                    Isotopes and Nuclear Properties:
 (Nuclear quadrupole moments (NQMom) in fm**2, nuclear magnetic moments (NMagM)
  in nuclear magnetons)

  Atom         1           2           3           4           5           6           7           8
 IAtWgt=          12           1           1           1          14           1           1           1
 AtmWgt=  12.0000000   1.0078250   1.0078250   1.0078250  14.0030740   1.0078250   1.0078250   1.0078250
 NucSpn=           0           1           1           1           2           1           1           1
 AtZEff=   0.0000000   0.0000000   0.0000000   0.0000000   0.0000000   0.0000000   0.0000000   0.0000000
 NQMom=    0.0000000   0.0000000   0.0000000   0.0000000   2.0440000   0.0000000   0.0000000   0.0000000
 NMagM=    0.0000000   2.7928460   2.7928460   2.7928460   0.4037610   2.7928460   2.7928460   2.7928460
 Leave Link  101 at Thu Feb 26 00:41:36 2015, MaxMem= 1073741824 cpu:       0.9
 (Enter /apps/gaussian/g09_c01/g09/l103.exe)

 GradGradGradGradGradGradGradGradGradGradGradGradGradGradGradGradGradGrad
 Berny optimization.
 Initialization pass.
                           ----------------------------
                           !    Initial Parameters    !
                           ! (Angstroms and Degrees)  !
 --------------------------                            --------------------------
 ! Name  Definition              Value          Derivative Info.                !
 --------------------------------------------------------------------------------
 ! R1    R(1,2)                  1.0898         calculate D2E/DX2 analytically  !
 ! R2    R(1,3)                  1.0898         calculate D2E/DX2 analytically  !
 ! R3    R(1,4)                  1.0898         calculate D2E/DX2 analytically  !
 ! R4    R(1,5)                  1.517          calculate D2E/DX2 analytically  !
 ! R5    R(5,6)                  1.0281         calculate D2E/DX2 analytically  !
 ! R6    R(5,7)                  1.0281         calculate D2E/DX2 analytically  !
 ! R7    R(5,8)                  1.0281         calculate D2E/DX2 analytically  !
 ! A1    A(2,1,3)              110.7303         calculate D2E/DX2 analytically  !
 ! A2    A(2,1,4)              110.7304         calculate D2E/DX2 analytically  !
 ! A3    A(2,1,5)              108.1807         calculate D2E/DX2 analytically  !
 ! A4    A(3,1,4)              110.7303         calculate D2E/DX2 analytically  !
 ! A5    A(3,1,5)              108.1807         calculate D2E/DX2 analytically  !
 ! A6    A(4,1,5)              108.1807         calculate D2E/DX2 analytically  !
 ! A7    A(1,5,6)              111.5829         calculate D2E/DX2 analytically  !
 ! A8    A(1,5,7)              111.583          calculate D2E/DX2 analytically  !
 ! A9    A(1,5,8)              111.583          calculate D2E/DX2 analytically  !
 ! A10   A(6,5,7)              107.2794         calculate D2E/DX2 analytically  !
 ! A11   A(6,5,8)              107.2794         calculate D2E/DX2 analytically  !
 ! A12   A(7,5,8)              107.2794         calculate D2E/DX2 analytically  !
 ! D1    D(2,1,5,6)            179.9926         calculate D2E/DX2 analytically  !
 ! D2    D(2,1,5,7)            -60.0075         calculate D2E/DX2 analytically  !
 ! D3    D(2,1,5,8)             59.9926         calculate D2E/DX2 analytically  !
 ! D4    D(3,1,5,6)            -60.0075         calculate D2E/DX2 analytically  !
 ! D5    D(3,1,5,7)             59.9925         calculate D2E/DX2 analytically  !
 ! D6    D(3,1,5,8)            179.9926         calculate D2E/DX2 analytically  !
 ! D7    D(4,1,5,6)             59.9925         calculate D2E/DX2 analytically  !
 ! D8    D(4,1,5,7)            179.9925         calculate D2E/DX2 analytically  !
 ! D9    D(4,1,5,8)            -60.0075         calculate D2E/DX2 analytically  !
 --------------------------------------------------------------------------------
 Trust Radius=3.00D-01 FncErr=1.00D-07 GrdErr=1.00D-06
 Number of steps in this run=     38 maximum allowed number of steps=    100.
 GradGradGradGradGradGradGradGradGradGradGradGradGradGradGradGradGradGrad

 Leave Link  103 at Thu Feb 26 00:41:36 2015, MaxMem= 1073741824 cpu:       0.0
 (Enter /apps/gaussian/g09_c01/g09/l202.exe)
                          Input orientation:                          
 ---------------------------------------------------------------------
 Center     Atomic      Atomic             Coordinates (Angstroms)
 Number     Number       Type             X           Y           Z
 ---------------------------------------------------------------------
      1          6           0        0.000000    0.000000   -0.804455
      2          1           0       -0.095874   -1.030964   -1.144495
      3          1           0       -0.844904    0.598511   -1.144495
      4          1           0        0.940777    0.432453   -1.144495
      5          7           0        0.000000    0.000000    0.712562
      6          1           0        0.088649    0.951929    1.090759
      7          1           0       -0.868719   -0.399192    1.090759
      8          1           0        0.780070   -0.552736    1.090759
 ---------------------------------------------------------------------
                    Distance matrix (angstroms):
                    1          2          3          4          5
     1  C    0.000000
     2  H    1.089819   0.000000
     3  H    1.089819   1.793386   0.000000
     4  H    1.089818   1.793386   1.793386   0.000000
     5  N    1.517017   2.126203   2.126203   2.126203   0.000000
     6  H    2.122702   2.993706   2.448017   2.447925   1.028134
     7  H    2.122702   2.448017   2.447925   2.993705   1.028134
     8  H    2.122702   2.447926   2.993705   2.448016   1.028134
                    6          7          8
     6  H    0.000000
     7  H    1.655923   0.000000
     8  H    1.655923   1.655923   0.000000
 Stoichiometry    CH6N(1+)
 Framework group  C3[C3(CN),X(H6)]
 Deg. of freedom     6
 Full point group                 C3      NOp   3
 Largest Abelian subgroup         C1      NOp   1
 Largest concise Abelian subgroup C1      NOp   1
                         Standard orientation:                         
 ---------------------------------------------------------------------
 Center     Atomic      Atomic             Coordinates (Angstroms)
 Number     Number       Type             X           Y           Z
 ---------------------------------------------------------------------
      1          6           0        0.000000    0.000000   -0.804455
      2          1           0        1.030964   -0.095874   -1.144495
      3          1           0       -0.598511   -0.844904   -1.144495
      4          1           0       -0.432453    0.940778   -1.144495
      5          7           0        0.000000    0.000000    0.712562
      6          1           0       -0.951929    0.088649    1.090759
      7          1           0        0.399192   -0.868719    1.090759
      8          1           0        0.552737    0.780070    1.090759
 ---------------------------------------------------------------------
 Rotational constants (GHZ):     84.1605103     19.8694623     19.8694623
 Leave Link  202 at Thu Feb 26 00:41:36 2015, MaxMem= 1073741824 cpu:       0.0
 (Enter /apps/gaussian/g09_c01/g09/l301.exe)
 Standard basis: Aug-CC-pVQZ (5D, 7F)
 Ernie: Thresh=  0.10000D-02 Tol=  0.10000D-05 Strict=F.
 Ernie:  6 primitive shells out of 172 were deleted.
 There are   436 symmetry adapted basis functions of A   symmetry.
 Integral buffers will be    131072 words long.
 Raffenetti 2 integral format.
 Two-electron integral symmetry is turned on.
   436 basis functions,   590 primitive gaussians,   540 cartesian basis functions
     9 alpha electrons        9 beta electrons
       nuclear repulsion energy        47.5846100594 Hartrees.
 IExCor=  402 DFT=T Ex+Corr=B3LYP ExCW=0 ScaHFX=  0.200000
 ScaDFX=  0.800000  0.720000  1.000000  0.810000 ScalE2=  1.000000  1.000000
 IRadAn=      5 IRanWt=     -1 IRanGd=            0 ICorTp=0
 NAtoms=    8 NActive=    8 NUniq=    4 SFac= 4.00D+00 NAtFMM=   60 NAOKFM=F Big=F
 Leave Link  301 at Thu Feb 26 00:41:36 2015, MaxMem= 1073741824 cpu:       0.3
 (Enter /apps/gaussian/g09_c01/g09/l302.exe)
 NPDir=0 NMtPBC=     1 NCelOv=     1 NCel=       1 NClECP=     1 NCelD=      1
         NCelK=      1 NCelE2=     1 NClLst=     1 CellRange=     0.0.
 One-electron integrals computed using PRISM.
 NBasis=   436 RedAO= T  NBF=   436
 NBsUse=   436 1.00D-06 NBFU=   436
 Precomputing XC quadrature grid using
 IXCGrd= 2 IRadAn=           5 IRanWt=          -1 IRanGd=           0 AccXCQ= 0.00D+00.
 NRdTot=     687 NPtTot=      184910 NUsed=      189836 NTot=      189868
 NSgBfM=   540   540   540   540   540 NAtAll=     8     8.
 Leave Link  302 at Thu Feb 26 00:41:37 2015, MaxMem= 1073741824 cpu:       3.7
 (Enter /apps/gaussian/g09_c01/g09/l303.exe)
 DipDrv:  MaxL=1.
 Leave Link  303 at Thu Feb 26 00:41:37 2015, MaxMem= 1073741824 cpu:       0.5
 (Enter /apps/gaussian/g09_c01/g09/l401.exe)
 Harris functional with IExCor=  402 diagonalized for initial guess.
 ExpMin= 2.36D-02 ExpMax= 4.58D+04 ExpMxC= 4.42D+02 IAcc=3 IRadAn=         5 AccDes= 0.00D+00
 HarFok:  IExCor=  402 AccDes= 0.00D+00 IRadAn=         5 IDoV= 1
 ScaDFX=  1.000000  1.000000  1.000000  1.000000
 FoFCou: FMM=F IPFlag=           0 FMFlag=      100000 FMFlg1=           0
         NFxFlg=           0 DoJE=T BraDBF=F KetDBF=T FulRan=T
         Omega=  0.000000  0.000000  1.000000  0.000000  0.000000 ICntrl=     500 IOpCl=  0
         NMat0=    1 NMatS0=    1 NMatT0=    0 NMatD0=    1 NMtDS0=    0 NMtDT0=    0
         I1Cent=           4 NGrid=           0.
 Petite list used in FoFCou.
 DSYEVD returned Info=         873 IAlg= 4 N=   436 NDim=   436 NE2=     2461365 trying DSYEV.
 Harris En= -96.3376728949489    
 Initial guess orbital symmetries:
       Occupied  (A) (A) (A) (A) (E) (E) (A) (E) (E)
       Virtual   (A) (A) (E) (E) (A) (E) (E) (A) (E) (E) (A) (E)
                 (E) (A) (E) (E) (E) (E) (A) (E) (E) (A) (E) (E)
                 (A) (A) (E) (E) (A) (A) (E) (E) (E) (E) (A) (E)
                 (E) (A) (A) (E) (E) (A) (E) (E) (E) (E) (A) (E)
                 (E) (A) (E) (E) (A) (A) (E) (E) (A) (E) (E) (A)
                 (E) (E) (E) (E) (A) (A) (A) (E) (E) (A) (E) (E)
                 (E) (E) (A) (E) (E) (A) (E) (E) (E) (E) (A) (E)
                 (E) (A) (E) (E) (A) (A) (E) (E) (A) (E) (E) (E)
                 (E) (A) (A) (E) (E) (E) (E) (A) (E) (E) (A) (A)
                 (E) (E) (A) (E) (E) (A) (E) (E) (A) (E) (E) (A)
                 (E) (E) (A) (E) (E) (A) (A) (E) (E) (A) (E) (E)
                 (A) (E) (E) (E) (E) (E) (E) (A) (E) (E) (A) (E)
                 (E) (A) (A) (A) (E) (E) (E) (E) (A) (E) (E) (A)
                 (E) (E) (A) (A) (E) (E) (E) (E) (A) (A) (E) (E)
                 (A) (E) (E) (A) (A) (E) (E) (E) (E) (A) (E) (E)
                 (A) (E) (E) (A) (E) (E) (E) (E) (A) (E) (E) (A)
                 (E) (E) (A) (A) (E) (E) (A) (E) (E) (A) (E) (E)
                 (A) (E) (E) (A) (A) (E) (E) (A) (E) (E) (A) (E)
                 (E) (A) (E) (E) (E) (E) (A) (E) (E) (A) (E) (E)
                 (A) (E) (E) (A) (A) (E) (E) (A) (E) (E) (A) (E)
                 (E) (A) (A) (E) (E) (E) (E) (A) (E) (E) (A) (E)
                 (E) (E) (E) (A) (A) (E) (E) (E) (E) (A) (E) (E)
                 (A) (E) (E) (A) (E) (E) (A) (A) (E) (E) (E) (E)
                 (A) (E) (E) (A) (A) (E) (E) (A) (E) (E) (A) (E)
                 (E) (A) (A) (E) (E) (E) (E) (A) (E) (E) (A) (A)
                 (E) (E) (E) (E) (A) (E) (E) (A) (A) (A) (E) (E)
                 (E) (E) (A) (E) (E) (E) (E) (A) (A) (A) (E) (E)
                 (E) (E) (A) (E) (E) (A) (E) (E) (A) (E) (E) (E)
                 (E) (A) (A) (E) (E) (E) (E) (E) (E) (A) (E) (E)
                 (A) (E) (E) (A) (A) (A) (A) (A) (E) (E) (E) (E)
                 (A) (E) (E) (E) (E) (E) (E) (E) (E) (A) (A) (A)
                 (E) (E) (E) (E) (E) (E) (A) (A) (E) (E) (A) (E)
                 (E) (A) (A) (E) (E) (E) (E) (E) (E) (E) (E) (A)
                 (A) (A) (E) (E) (A) (E) (E) (A) (A) (E) (E) (E)
                 (E) (A) (A) (E) (E) (A) (E) (E) (A) (E) (E) (E)
                 (E) (A) (E) (E) (A) (A) (A)
 The electronic state of the initial guess is 1-A.
 Leave Link  401 at Thu Feb 26 00:41:39 2015, MaxMem= 1073741824 cpu:      14.5
 (Enter /apps/gaussian/g09_c01/g09/l502.exe)
 Closed shell SCF:
 Requested convergence on RMS density matrix=1.00D-08 within 128 cycles.
 Requested convergence on MAX density matrix=1.00D-06.
 Requested convergence on             energy=1.00D-06.
 No special actions if energy rises.
 Using DIIS extrapolation, IDIIS=  1040.
 Integral symmetry usage will be decided dynamically.
       189751 words used for storage of precomputed grid.
 IEnd=     1091081 IEndB=     1091081 NGot=  1073741824 MDV=  1072959524
 LenX=  1072959524 LenY=  1072667384
 Fock matrices will be formed incrementally for  20 cycles.

 Cycle   1  Pass 1  IDiag  1:
 FoFCou: FMM=F IPFlag=           0 FMFlag=      100000 FMFlg1=           0
         NFxFlg=           0 DoJE=F BraDBF=F KetDBF=F FulRan=T
         Omega=  0.000000  0.000000  1.000000  0.000000  0.000000 ICntrl=       0 IOpCl=  0
         NMat0=    1 NMatS0=    1 NMatT0=    0 NMatD0=    1 NMtDS0=    0 NMtDT0=    0
         I1Cent=           0 NGrid=           0.
 Petite list used in FoFCou.
 E= -96.2213159514464    
 DIIS: error= 1.97D-02 at cycle   1 NSaved=   1.
 NSaved= 1 IEnMin= 1 EnMin= -96.2213159514464     IErMin= 1 ErrMin= 1.97D-02
 ErrMax= 1.97D-02 EMaxC= 1.00D-01 BMatC= 5.55D-02 BMatP= 5.55D-02
 IDIUse=3 WtCom= 8.03D-01 WtEn= 1.97D-01
 Coeff-Com:  0.100D+01
 Coeff-En:   0.100D+01
 Coeff:      0.100D+01
 Gap=     0.364 Goal=   None    Shift=    0.000
 DSYEVD returned Info=       96139 IAlg= 4 N=   436 NDim=   436 NE2=     2460245 trying DSYEV.
 GapD=    0.364 DampG=1.000 DampE=0.500 DampFc=0.5000 IDamp=-1.
 Damping current iteration by 5.00D-01
 RMSDP=7.14D-04 MaxDP=4.12D-02              OVMax= 1.11D-01

 Cycle   2  Pass 1  IDiag  1:
 RMSU=  2.44D-04    CP:  9.68D-01
 E= -96.2427485690312     Delta-E=       -0.021432617585 Rises=F Damp=T
 DIIS: error= 4.37D-03 at cycle   2 NSaved=   2.
 NSaved= 2 IEnMin= 2 EnMin= -96.2427485690312     IErMin= 2 ErrMin= 4.37D-03
 ErrMax= 4.37D-03 EMaxC= 1.00D-01 BMatC= 3.96D-03 BMatP= 5.55D-02
 IDIUse=3 WtCom= 9.56D-01 WtEn= 4.37D-02
 Coeff-Com: -0.684D-01 0.107D+01
 Coeff-En:   0.000D+00 0.100D+01
 Coeff:     -0.654D-01 0.107D+01
 Gap=     0.412 Goal=   None    Shift=    0.000
 DSYEVD returned Info=         873 IAlg= 4 N=   436 NDim=   436 NE2=     2460245 trying DSYEV.
 RMSDP=2.04D-04 MaxDP=2.10D-02 DE=-2.14D-02 OVMax= 6.15D-02

 Cycle   3  Pass 1  IDiag  1:
 RMSU=  1.24D-04    CP:  9.67D-01  1.31D+00
 E= -96.2643758414901     Delta-E=       -0.021627272459 Rises=F Damp=F
 DIIS: error= 3.07D-03 at cycle   3 NSaved=   3.
 NSaved= 3 IEnMin= 3 EnMin= -96.2643758414901     IErMin= 3 ErrMin= 3.07D-03
 ErrMax= 3.07D-03 EMaxC= 1.00D-01 BMatC= 1.13D-03 BMatP= 3.96D-03
 IDIUse=3 WtCom= 9.69D-01 WtEn= 3.07D-02
 Coeff-Com: -0.999D-01 0.348D+00 0.752D+00
 Coeff-En:   0.000D+00 0.000D+00 0.100D+01
 Coeff:     -0.968D-01 0.337D+00 0.759D+00
 Gap=     0.412 Goal=   None    Shift=    0.000
 DSYEVD returned Info=       96139 IAlg= 4 N=   436 NDim=   436 NE2=     2460245 trying DSYEV.
 RMSDP=4.41D-05 MaxDP=3.82D-03 DE=-2.16D-02 OVMax= 9.35D-03

 Cycle   4  Pass 1  IDiag  1:
 RMSU=  1.87D-05    CP:  9.62D-01  1.37D+00  8.59D-01
 E= -96.2653360563989     Delta-E=       -0.000960214909 Rises=F Damp=F
 DIIS: error= 7.30D-04 at cycle   4 NSaved=   4.
 NSaved= 4 IEnMin= 4 EnMin= -96.2653360563989     IErMin= 4 ErrMin= 7.30D-04
 ErrMax= 7.30D-04 EMaxC= 1.00D-01 BMatC= 8.10D-05 BMatP= 1.13D-03
 IDIUse=3 WtCom= 9.93D-01 WtEn= 7.30D-03
 Coeff-Com: -0.322D-01 0.861D-01 0.293D+00 0.653D+00
 Coeff-En:   0.000D+00 0.000D+00 0.000D+00 0.100D+01
 Coeff:     -0.319D-01 0.854D-01 0.291D+00 0.656D+00
 Gap=     0.410 Goal=   None    Shift=    0.000
 DSYEVD returned Info=       96139 IAlg= 4 N=   436 NDim=   436 NE2=     2460245 trying DSYEV.
 RMSDP=1.12D-05 MaxDP=8.59D-04 DE=-9.60D-04 OVMax= 3.79D-03

 Cycle   5  Pass 1  IDiag  1:
 RMSU=  5.88D-06    CP:  9.62D-01  1.38D+00  8.74D-01  7.65D-01
 E= -96.2653914948774     Delta-E=       -0.000055438479 Rises=F Damp=F
 DIIS: error= 4.17D-04 at cycle   5 NSaved=   5.
 NSaved= 5 IEnMin= 5 EnMin= -96.2653914948774     IErMin= 5 ErrMin= 4.17D-04
 ErrMax= 4.17D-04 EMaxC= 1.00D-01 BMatC= 1.64D-05 BMatP= 8.10D-05
 IDIUse=3 WtCom= 9.96D-01 WtEn= 4.17D-03
 Coeff-Com: -0.109D-01 0.192D-01 0.109D+00 0.360D+00 0.522D+00
 Coeff-En:   0.000D+00 0.000D+00 0.000D+00 0.754D-01 0.925D+00
 Coeff:     -0.108D-01 0.191D-01 0.109D+00 0.359D+00 0.524D+00
 Gap=     0.411 Goal=   None    Shift=    0.000
 DSYEVD returned Info=       96139 IAlg= 4 N=   436 NDim=   436 NE2=     2460245 trying DSYEV.
 RMSDP=4.05D-06 MaxDP=2.80D-04 DE=-5.54D-05 OVMax= 9.61D-04

 Cycle   6  Pass 1  IDiag  1:
 RMSU=  1.53D-06    CP:  9.62D-01  1.38D+00  8.81D-01  7.99D-01  6.26D-01
 E= -96.2654035967962     Delta-E=       -0.000012101919 Rises=F Damp=F
 DIIS: error= 2.40D-05 at cycle   6 NSaved=   6.
 NSaved= 6 IEnMin= 6 EnMin= -96.2654035967962     IErMin= 6 ErrMin= 2.40D-05
 ErrMax= 2.40D-05 EMaxC= 1.00D-01 BMatC= 5.97D-08 BMatP= 1.64D-05
 IDIUse=1 WtCom= 1.00D+00 WtEn= 0.00D+00
 Coeff-Com:  0.102D-04-0.598D-03 0.393D-02 0.146D-01 0.684D-01 0.914D+00
 Coeff:      0.102D-04-0.598D-03 0.393D-02 0.146D-01 0.684D-01 0.914D+00
 Gap=     0.411 Goal=   None    Shift=    0.000
 DSYEVD returned Info=         873 IAlg= 4 N=   436 NDim=   436 NE2=     2460245 trying DSYEV.
 RMSDP=3.74D-07 MaxDP=3.33D-05 DE=-1.21D-05 OVMax= 1.01D-04

 Cycle   7  Pass 1  IDiag  1:
 RMSU=  1.75D-07    CP:  9.62D-01  1.38D+00  8.82D-01  7.97D-01  6.47D-01
                    CP:  1.00D+00
 E= -96.2654036476261     Delta-E=       -0.000000050830 Rises=F Damp=F
 DIIS: error= 3.66D-06 at cycle   7 NSaved=   7.
 NSaved= 7 IEnMin= 7 EnMin= -96.2654036476261     IErMin= 7 ErrMin= 3.66D-06
 ErrMax= 3.66D-06 EMaxC= 1.00D-01 BMatC= 8.90D-10 BMatP= 5.97D-08
 IDIUse=1 WtCom= 1.00D+00 WtEn= 0.00D+00
 Coeff-Com:  0.122D-03-0.303D-03-0.478D-03-0.114D-02 0.241D-02 0.154D+00
 Coeff-Com:  0.846D+00
 Coeff:      0.122D-03-0.303D-03-0.478D-03-0.114D-02 0.241D-02 0.154D+00
 Coeff:      0.846D+00
 Gap=     0.411 Goal=   None    Shift=    0.000
 DSYEVD returned Info=       96139 IAlg= 4 N=   436 NDim=   436 NE2=     2460245 trying DSYEV.
 RMSDP=4.92D-08 MaxDP=5.24D-06 DE=-5.08D-08 OVMax= 9.60D-06

 Cycle   8  Pass 1  IDiag  1:
 RMSU=  2.34D-08    CP:  9.62D-01  1.38D+00  8.82D-01  7.98D-01  6.47D-01
                    CP:  1.01D+00  9.81D-01
 E= -96.2654036485712     Delta-E=       -0.000000000945 Rises=F Damp=F
 DIIS: error= 3.08D-07 at cycle   8 NSaved=   8.
 NSaved= 8 IEnMin= 8 EnMin= -96.2654036485712     IErMin= 8 ErrMin= 3.08D-07
 ErrMax= 3.08D-07 EMaxC= 1.00D-01 BMatC= 1.35D-11 BMatP= 8.90D-10
 IDIUse=1 WtCom= 1.00D+00 WtEn= 0.00D+00
 Coeff-Com:  0.240D-04-0.475D-04-0.256D-03-0.710D-03-0.166D-02 0.791D-03
 Coeff-Com:  0.115D+00 0.887D+00
 Coeff:      0.240D-04-0.475D-04-0.256D-03-0.710D-03-0.166D-02 0.791D-03
 Coeff:      0.115D+00 0.887D+00
 Gap=     0.411 Goal=   None    Shift=    0.000
 DSYEVD returned Info=         873 IAlg= 4 N=   436 NDim=   436 NE2=     2460245 trying DSYEV.
 RMSDP=7.97D-09 MaxDP=7.37D-07 DE=-9.45D-10 OVMax= 1.33D-06

 SCF Done:  E(RB3LYP) =  -96.2654036486     A.U. after    8 cycles
             Convg  =    0.7973D-08             -V/T =  2.0061
 KE= 9.568267781310D+01 PE=-3.133605012413D+02 EE= 7.382780972021D+01
 Leave Link  502 at Thu Feb 26 00:44:01 2015, MaxMem= 1073741824 cpu:    1136.1
 (Enter /apps/gaussian/g09_c01/g09/l801.exe)
 Range of M.O.s used for correlation:     1   436
 NBasis=   436 NAE=     9 NBE=     9 NFC=     0 NFV=     0
 NROrb=    436 NOA=     9 NOB=     9 NVA=   427 NVB=   427

 **** Warning!!: The largest alpha MO coefficient is  0.14444227D+03

 Leave Link  801 at Thu Feb 26 00:44:01 2015, MaxMem= 1073741824 cpu:       0.1
 (Enter /apps/gaussian/g09_c01/g09/l1002.exe)
 Minotr:  Closed shell wavefunction.
          Direct CPHF calculation.
          Differentiating once with respect to electric field.
                with respect to dipole field.
          Electric field/nuclear overlap derivatives assumed to be zero.
          Using symmetry in CPHF.
          Requested convergence is 1.0D-08 RMS, and 1.0D-07 maximum.
          Secondary convergence is 1.0D-12 RMS, and 1.0D-12 maximum.
          NewPWx=F KeepS1=T KeepF1=T KeepIn=T MapXYZ=F SortEE=F KeepMc=T.
          MDV=    1073741756 using IRadAn=       1.
 Generate precomputed XC quadrature information.
          Solving linear equations simultaneously, MaxMat=       0.
          There are     3 degrees of freedom in the 1st order CPHF.  IDoFFX=0.
      3 vectors produced by pass  0 Test12= 1.28D-13 3.33D-08 XBig12= 1.08D+01 1.39D+00.
 AX will form     3 AO Fock derivatives at one time.
 Integrals replicated using symmetry in FoFDir.
 MinBra= 0 MaxBra= 4 Meth= 1.
 IRaf=       0 NMat=   3 IRICut=       1 DoRegI=T DoRafI=F ISym2E= 2 JSym2E=2.
      3 vectors produced by pass  1 Test12= 1.28D-13 3.33D-08 XBig12= 6.71D-01 2.80D-01.
      3 vectors produced by pass  2 Test12= 1.28D-13 3.33D-08 XBig12= 1.62D-01 1.13D-01.
      3 vectors produced by pass  3 Test12= 1.28D-13 3.33D-08 XBig12= 8.59D-03 2.27D-02.
      3 vectors produced by pass  4 Test12= 1.28D-13 3.33D-08 XBig12= 1.90D-03 8.85D-03.
      3 vectors produced by pass  5 Test12= 1.28D-13 3.33D-08 XBig12= 6.39D-05 2.11D-03.
      3 vectors produced by pass  6 Test12= 1.28D-13 3.33D-08 XBig12= 2.65D-06 4.21D-04.
      3 vectors produced by pass  7 Test12= 1.28D-13 3.33D-08 XBig12= 4.68D-08 7.92D-05.
      1 vectors produced by pass  8 Test12= 1.28D-13 3.33D-08 XBig12= 1.71D-10 3.72D-06.
      1 vectors produced by pass  9 Test12= 1.28D-13 3.33D-08 XBig12= 3.12D-13 1.67D-07.
 Inverted reduced A of dimension    26 with in-core refinement.
 End of Minotr Frequency-dependent properties file   721 does not exist.
 End of Minotr Frequency-dependent properties file   722 does not exist.
 Leave Link 1002 at Thu Feb 26 00:56:09 2015, MaxMem= 1073741824 cpu:    5810.9
 (Enter /apps/gaussian/g09_c01/g09/l1101.exe)
 Using compressed storage, NAtomX=     8.
 Will process   9 centers per pass.
 Leave Link 1101 at Thu Feb 26 00:56:10 2015, MaxMem= 1073741824 cpu:       4.1
 (Enter /apps/gaussian/g09_c01/g09/l1102.exe)
 Symmetrizing basis deriv contribution to polar:
 IMax=3 JMax=2 DiffMx= 0.00D+00
 Leave Link 1102 at Thu Feb 26 00:56:10 2015, MaxMem= 1073741824 cpu:       0.5
 (Enter /apps/gaussian/g09_c01/g09/l1110.exe)
 Forming Gx(P) for the SCF density, NAtomX=     8.
 Integral derivatives from FoFDir/FoFCou, PRISM(SPDF).
 Do as many integral derivatives as possible in FoFDir.
 G2DrvN: MDV=    1073741656.
 G2DrvN: will do     9 centers at a time, making    1 passes doing MaxLOS=4.
 Calling FoFCou, ICntrl=  3107 FMM=F I1Cent=   0 AccDes= 0.00D+00.
 FoFCou: FMM=F IPFlag=           0 FMFlag=      100000 FMFlg1=           0
         NFxFlg=           0 DoJE=F BraDBF=F KetDBF=F FulRan=T
         Omega=  0.000000  0.000000  1.000000  0.000000  0.000000 ICntrl=    3107 IOpCl=  0
         NMat0=    1 NMatS0=    1 NMatT0=    0 NMatD0=    4 NMtDS0=    3 NMtDT0=    0
         I1Cent=           0 NGrid=           0.
 Petite list used in FoFCou.
 FoFDir/FoFCou used for L=0 through L=4.
 End of G2Drv Frequency-dependent properties file   721 does not exist.
 End of G2Drv Frequency-dependent properties file   722 does not exist.
 Leave Link 1110 at Thu Feb 26 01:00:44 2015, MaxMem= 1073741824 cpu:    2188.3
 (Enter /apps/gaussian/g09_c01/g09/l1002.exe)
 Minotr:  Closed shell wavefunction.
          IDoAtm=11111111
          Direct CPHF calculation.
          Differentiating once with respect to electric field.
                with respect to dipole field.
          Differentiating once with respect to nuclear coordinates.
          Using symmetry in CPHF.
          Requested convergence is 1.0D-08 RMS, and 1.0D-07 maximum.
          Secondary convergence is 1.0D-12 RMS, and 1.0D-12 maximum.
          NewPWx=T KeepS1=F KeepF1=F KeepIn=T MapXYZ=F SortEE=F KeepMc=T.
          MDV=    1073741740 using IRadAn=       1.
 Generate precomputed XC quadrature information.
          Solving linear equations simultaneously, MaxMat=       0.
 Integrals replicated using symmetry in FoFDir.
 MinBra= 0 MaxBra= 4 Meth= 1.
 IRaf=       0 NMat=  15 IRICut=       1 DoRegI=T DoRafI=F ISym2E= 2 JSym2E=2.
          There are    15 degrees of freedom in the 1st order CPHF.  IDoFFX=4.
 Will reuse    3 saved solutions.
     12 vectors produced by pass  0 Test12= 2.56D-14 6.67D-09 XBig12= 6.77D-02 7.90D-02.
 AX will form    12 AO Fock derivatives at one time.
     12 vectors produced by pass  1 Test12= 2.56D-14 6.67D-09 XBig12= 9.94D-03 2.36D-02.
     12 vectors produced by pass  2 Test12= 2.56D-14 6.67D-09 XBig12= 4.76D-05 1.64D-03.
     12 vectors produced by pass  3 Test12= 2.56D-14 6.67D-09 XBig12= 2.75D-07 1.24D-04.
     12 vectors produced by pass  4 Test12= 2.56D-14 6.67D-09 XBig12= 8.33D-10 7.37D-06.
     10 vectors produced by pass  5 Test12= 2.56D-14 6.67D-09 XBig12= 1.76D-12 3.36D-07.
      1 vectors produced by pass  6 Test12= 2.56D-14 6.67D-09 XBig12= 2.32D-15 8.85D-09.
 Inverted reduced A of dimension    71 with in-core refinement.
 FullF1:  Do perturbations    1 to    15.
 Isotropic polarizability for W=    0.000000       20.54 Bohr**3.
 FullF1:  Do perturbations    1 to     6.
 End of Minotr Frequency-dependent properties file   721 does not exist.
 End of Minotr Frequency-dependent properties file   722 does not exist.
 Leave Link 1002 at Thu Feb 26 01:28:54 2015, MaxMem= 1073741824 cpu:   13482.0
 (Enter /apps/gaussian/g09_c01/g09/l601.exe)
 Copying SCF densities to generalized density rwf, IOpCl= 0 IROHF=0.

 **********************************************************************

            Population analysis using the SCF density.

 **********************************************************************

 Orbital symmetries:
       Occupied  (A) (A) (A) (A) (E) (E) (A) (E) (E)
       Virtual   (A) (A) (E) (E) (E) (E) (A) (A) (E) (E) (A) (E)
                 (E) (A) (E) (E) (E) (E) (A) (E) (E) (A) (A) (E)
                 (E) (A) (A) (E) (E) (E) (E) (A) (E) (E) (A) (E)
                 (E) (A) (A) (E) (E) (A) (E) (E) (E) (E) (A) (E)
                 (E) (A) (A) (E) (E) (A) (A) (E) (E) (E) (E) (E)
                 (E) (A) (E) (E) (A) (A) (E) (E) (A) (A) (E) (E)
                 (A) (E) (E) (E) (E) (A) (E) (E) (E) (E) (A) (E)
                 (E) (A) (E) (E) (A) (E) (E) (A) (A) (E) (E) (E)
                 (E) (A) (A) (E) (E) (E) (E) (A) (E) (E) (A) (A)
                 (E) (E) (A) (E) (E) (A) (A) (E) (E) (E) (E) (E)
                 (E) (A) (A) (E) (E) (A) (A) (A) (E) (E) (E) (E)
                 (A) (E) (E) (E) (E) (E) (E) (E) (E) (A) (A) (A)
                 (E) (E) (A) (A) (E) (E) (E) (E) (A) (E) (E) (E)
                 (E) (A) (A) (A) (E) (E) (A) (E) (E) (E) (E) (A)
                 (A) (E) (E) (A) (E) (E) (A) (E) (E) (A) (E) (E)
                 (A) (E) (E) (A) (E) (E) (E) (E) (A) (E) (E) (A)
                 (E) (E) (A) (A) (E) (E) (A) (E) (E) (A) (E) (E)
                 (A) (E) (E) (A) (A) (E) (E) (E) (E) (A) (A) (E)
                 (E) (A) (E) (E) (E) (E) (A) (E) (E) (A) (E) (E)
                 (E) (E) (A) (A) (A) (E) (E) (A) (A) (E) (E) (E)
                 (E) (A) (A) (E) (E) (E) (E) (A) (E) (E) (A) (E)
                 (E) (E) (E) (A) (A) (E) (E) (E) (E) (A) (E) (E)
                 (A) (E) (E) (E) (E) (A) (A) (A) (E) (E) (E) (E)
                 (A) (E) (E) (A) (A) (E) (E) (A) (E) (E) (A) (E)
                 (E) (A) (A) (E) (E) (A) (A) (E) (E) (E) (E) (A)
                 (E) (E) (E) (E) (E) (E) (A) (A) (A) (E) (E) (A)
                 (E) (E) (A) (E) (E) (A) (E) (E) (A) (A) (E) (E)
                 (E) (E) (A) (E) (E) (E) (E) (A) (A) (E) (E) (E)
                 (E) (A) (A) (E) (E) (E) (E) (E) (E) (A) (E) (E)
                 (A) (A) (A) (E) (E) (A) (A) (A) (E) (E) (E) (E)
                 (A) (E) (E) (E) (E) (E) (E) (E) (E) (A) (A) (A)
                 (E) (E) (E) (E) (E) (E) (A) (A) (E) (E) (A) (E)
                 (E) (A) (A) (E) (E) (E) (E) (E) (E) (E) (E) (A)
                 (A) (A) (A) (E) (E) (E) (E) (A) (A) (E) (E) (E)
                 (E) (A) (A) (E) (E) (A) (E) (E) (A) (E) (E) (E)
                 (E) (A) (E) (E) (A) (A) (A)
 The electronic state is 1-A.
 Alpha  occ. eigenvalues --  -14.66442 -10.43792  -1.22263  -0.93754  -0.80677
 Alpha  occ. eigenvalues --   -0.80677  -0.70962  -0.63030  -0.63030
 Alpha virt. eigenvalues --   -0.21939  -0.15373  -0.15275  -0.15275  -0.11341
 Alpha virt. eigenvalues --   -0.11341  -0.10137  -0.07769  -0.07765  -0.07765
 Alpha virt. eigenvalues --   -0.05903  -0.05707  -0.05707  -0.03714  -0.03254
 Alpha virt. eigenvalues --   -0.03254  -0.01886  -0.01886  -0.00438   0.01223
 Alpha virt. eigenvalues --    0.01223   0.03900   0.05560   0.05767   0.05767
 Alpha virt. eigenvalues --    0.05877   0.08942   0.09042   0.09042   0.10843
 Alpha virt. eigenvalues --    0.10843   0.11403   0.12658   0.12658   0.13101
 Alpha virt. eigenvalues --    0.13370   0.13370   0.13869   0.14179   0.16014
 Alpha virt. eigenvalues --    0.16014   0.18766   0.20464   0.20464   0.20807
 Alpha virt. eigenvalues --    0.20807   0.23457   0.26180   0.26180   0.29883
 Alpha virt. eigenvalues --    0.32148   0.32400   0.32400   0.35331   0.35900
 Alpha virt. eigenvalues --    0.36748   0.36748   0.40074   0.40074   0.42336
 Alpha virt. eigenvalues --    0.42336   0.43440   0.44737   0.44737   0.45064
 Alpha virt. eigenvalues --    0.45846   0.46883   0.46883   0.47051   0.49497
 Alpha virt. eigenvalues --    0.51004   0.51004   0.53583   0.54355   0.54355
 Alpha virt. eigenvalues --    0.57902   0.57902   0.59110   0.61212   0.61212
 Alpha virt. eigenvalues --    0.62449   0.62449   0.64411   0.65216   0.65216
 Alpha virt. eigenvalues --    0.67113   0.70053   0.70053   0.71176   0.72165
 Alpha virt. eigenvalues --    0.72165   0.73179   0.76218   0.80616   0.80616
 Alpha virt. eigenvalues --    0.84471   0.84471   0.85540   0.85636   0.86307
 Alpha virt. eigenvalues --    0.86307   0.87315   0.87315   0.90659   0.98542
 Alpha virt. eigenvalues --    0.98542   0.99836   1.00332   1.01808   1.01808
 Alpha virt. eigenvalues --    1.02250   1.10654   1.10654   1.11038   1.13138
 Alpha virt. eigenvalues --    1.14693   1.14693   1.15474   1.15474   1.17830
 Alpha virt. eigenvalues --    1.17830   1.18264   1.21812   1.25155   1.25155
 Alpha virt. eigenvalues --    1.27820   1.31427   1.34488   1.35364   1.35364
 Alpha virt. eigenvalues --    1.37228   1.37228   1.43820   1.44667   1.44667
 Alpha virt. eigenvalues --    1.48528   1.48528   1.55010   1.55010   1.55391
 Alpha virt. eigenvalues --    1.55391   1.55547   1.59717   1.62654   1.63458
 Alpha virt. eigenvalues --    1.63458   1.64899   1.65536   1.67799   1.67799
 Alpha virt. eigenvalues --    1.71245   1.71245   1.73141   1.74194   1.74194
 Alpha virt. eigenvalues --    1.76437   1.76437   1.76998   1.77455   1.80688
 Alpha virt. eigenvalues --    1.81520   1.81520   1.83523   1.84947   1.84947
 Alpha virt. eigenvalues --    1.85793   1.85793   1.87589   1.91842   1.91867
 Alpha virt. eigenvalues --    1.91867   1.96029   2.06074   2.06074   2.07114
 Alpha virt. eigenvalues --    2.07572   2.07572   2.12090   2.14310   2.14310
 Alpha virt. eigenvalues --    2.17210   2.21130   2.21130   2.26347   2.28952
 Alpha virt. eigenvalues --    2.28952   2.32998   2.32998   2.33280   2.34880
 Alpha virt. eigenvalues --    2.34880   2.37814   2.40771   2.40771   2.41662
 Alpha virt. eigenvalues --    2.45882   2.47340   2.47340   2.48176   2.52305
 Alpha virt. eigenvalues --    2.52305   2.57317   2.63011   2.63011   2.63568
 Alpha virt. eigenvalues --    2.64383   2.64383   2.68451   2.72058   2.72087
 Alpha virt. eigenvalues --    2.72087   2.78907   2.78907   2.79170   2.81177
 Alpha virt. eigenvalues --    2.83708   2.83708   2.92559   2.98440   2.98440
 Alpha virt. eigenvalues --    3.05985   3.05985   3.11580   3.12315   3.12315
 Alpha virt. eigenvalues --    3.20928   3.21804   3.21804   3.23391   3.23391
 Alpha virt. eigenvalues --    3.25511   3.31372   3.38214   3.39249   3.39249
 Alpha virt. eigenvalues --    3.50267   3.51135   3.52815   3.52815   3.55519
 Alpha virt. eigenvalues --    3.55519   3.59805   3.63043   3.66074   3.66074
 Alpha virt. eigenvalues --    3.73869   3.73869   3.76488   3.77819   3.77819
 Alpha virt. eigenvalues --    3.82338   3.85150   3.85150   3.94819   3.94819
 Alpha virt. eigenvalues --    3.98168   4.06858   4.07412   4.07412   4.16506
 Alpha virt. eigenvalues --    4.16506   4.25369   4.29317   4.29317   4.31094
 Alpha virt. eigenvalues --    4.33228   4.33228   4.46091   4.46091   4.48734
 Alpha virt. eigenvalues --    4.61098   4.61388   4.61611   4.61611   4.80765
 Alpha virt. eigenvalues --    4.80765   4.80959   4.94997   4.94997   5.08787
 Alpha virt. eigenvalues --    5.31401   5.68425   5.68425   5.69436   5.89659
 Alpha virt. eigenvalues --    5.89659   5.91137   6.17181   6.17181   6.21218
 Alpha virt. eigenvalues --    6.24253   6.29468   6.29468   6.31053   6.34068
 Alpha virt. eigenvalues --    6.35458   6.35458   6.38414   6.38414   6.46880
 Alpha virt. eigenvalues --    6.48071   6.48071   6.60761   6.60761   6.63477
 Alpha virt. eigenvalues --    6.63477   6.69114   6.74199   6.80828   6.83968
 Alpha virt. eigenvalues --    6.83968   6.87326   6.91580   6.91580   6.97731
 Alpha virt. eigenvalues --    7.02673   7.02673   7.09022   7.16194   7.16194
 Alpha virt. eigenvalues --    7.17485   7.19232   7.28349   7.28349   7.36591
 Alpha virt. eigenvalues --    7.36591   7.44411   7.53310   7.53310   7.57460
 Alpha virt. eigenvalues --    7.57460   7.59281   7.65543   7.67677   7.67677
 Alpha virt. eigenvalues --    7.79480   7.79480   7.88367   7.94357   7.96730
 Alpha virt. eigenvalues --    7.96730   8.02172   8.02172   8.08203   8.08203
 Alpha virt. eigenvalues --    8.12406   8.22323   8.22323   8.25672   8.34485
 Alpha virt. eigenvalues --    8.35788   8.36413   8.36413   8.42524   8.45057
 Alpha virt. eigenvalues --    8.51292   8.51623   8.51623   8.58207   8.58207
 Alpha virt. eigenvalues --    8.63494   8.67459   8.67459   8.74940   8.74940
 Alpha virt. eigenvalues --    8.82824   8.82824   8.85235   8.85235   8.91580
 Alpha virt. eigenvalues --    8.94458   8.98791   9.04007   9.04007   9.06010
 Alpha virt. eigenvalues --    9.06010   9.12196   9.12196   9.27301   9.31979
 Alpha virt. eigenvalues --    9.34024   9.34024   9.36573   9.45185   9.45185
 Alpha virt. eigenvalues --    9.47994   9.50162   9.71346   9.71346   9.75752
 Alpha virt. eigenvalues --    9.75752   9.82609   9.82609   9.84898   9.84898
 Alpha virt. eigenvalues --   10.00273  10.08400  10.19335  10.20670  10.22711
 Alpha virt. eigenvalues --   10.22711  10.34141  10.34141  10.36130  10.49791
 Alpha virt. eigenvalues --   10.50679  10.50679  10.77234  10.77234  10.90305
 Alpha virt. eigenvalues --   11.17249  11.32725  11.32725  11.63626  11.68883
 Alpha virt. eigenvalues --   11.68883  12.19990  12.38725  12.38725  12.56446
 Alpha virt. eigenvalues --   12.56446  12.96901  14.21927  14.21927  14.58808
 Alpha virt. eigenvalues --   27.79480  36.66260
          Condensed to atoms (all electrons):
              1          2          3          4          5          6
     1  C    5.308449   0.379945   0.379945   0.379945   0.290510  -0.009337
     2  H    0.379945   0.294848   0.011296   0.011296  -0.013234   0.000748
     3  H    0.379945   0.011296   0.294848   0.011296  -0.013234  -0.001881
     4  H    0.379945   0.011296   0.011296   0.294848  -0.013234  -0.001879
     5  N    0.290510  -0.013234  -0.013234  -0.013234   5.811369   0.366445
     6  H   -0.009337   0.000748  -0.001881  -0.001879   0.366445   0.372843
     7  H   -0.009337  -0.001881  -0.001879   0.000748   0.366445  -0.016088
     8  H   -0.009337  -0.001879   0.000748  -0.001881   0.366445  -0.016088
              7          8
     1  C   -0.009337  -0.009337
     2  H   -0.001881  -0.001879
     3  H   -0.001879   0.000748
     4  H    0.000748  -0.001881
     5  N    0.366445   0.366445
     6  H   -0.016088  -0.016088
     7  H    0.372843  -0.016088
     8  H   -0.016088   0.372843
 Mulliken atomic charges:
              1
     1  C   -0.710784
     2  H    0.318862
     3  H    0.318862
     4  H    0.318862
     5  N   -0.161512
     6  H    0.305237
     7  H    0.305237
     8  H    0.305237
 Sum of Mulliken atomic charges =   1.00000
 Mulliken charges with hydrogens summed into heavy atoms:
              1
     1  C    0.245801
     5  N    0.754199
 Sum of Mulliken charges with hydrogens summed into heavy atoms =   1.00000
 APT atomic charges:
              1
     1  C    0.255888
     2  H    0.066569
     3  H    0.066570
     4  H    0.066569
     5  N   -0.219455
     6  H    0.254620
     7  H    0.254620
     8  H    0.254619
 Sum of APT charges=   1.00000
 APT Atomic charges with hydrogens summed into heavy atoms:
              1
     1  C    0.455597
     2  H    0.000000
     3  H    0.000000
     4  H    0.000000
     5  N    0.544404
     6  H    0.000000
     7  H    0.000000
     8  H    0.000000
 Sum of APT charges=   1.00000
 Electronic spatial extent (au):  <R**2>=             94.7992
 Charge=              1.0000 electrons
 Dipole moment (field-independent basis, Debye):
    X=              0.0000    Y=              0.0000    Z=              2.1659  Tot=              2.1659
 Quadrupole moment (field-independent basis, Debye-Ang):
   XX=            -10.1981   YY=            -10.1981   ZZ=             -6.7524
   XY=              0.0000   XZ=              0.0000   YZ=              0.0000
 Traceless Quadrupole moment (field-independent basis, Debye-Ang):
   XX=             -1.1486   YY=             -1.1486   ZZ=              2.2971
   XY=              0.0000   XZ=              0.0000   YZ=              0.0000
 Octapole moment (field-independent basis, Debye-Ang**2):
  XXX=             -0.4038  YYY=             -0.1159  ZZZ=              5.7200  XYY=              0.4038
  XXY=              0.1159  XXZ=              2.5978  XZZ=              0.0000  YZZ=              0.0000
  YYZ=              2.5978  XYZ=              0.0000
 Hexadecapole moment (field-independent basis, Debye-Ang**3):
 XXXX=            -18.2284 YYYY=            -18.2284 ZZZZ=            -62.6989 XXXY=              0.0000
 XXXZ=             -2.7155 YYYX=              0.0000 YYYZ=             -0.7761 ZZZX=              0.0000
 ZZZY=              0.0000 XXYY=             -6.0761 XXZZ=            -10.9486 YYZZ=            -10.9486
 XXYZ=              0.7761 YYXZ=              2.7155 ZZXY=              0.0000
 N-N= 4.758461005939D+01 E-N=-3.133604978373D+02  KE= 9.568267781310D+01
  Exact polarizability:  19.475   0.000  19.475   0.000   0.000  22.670
 Approx polarizability:  26.036   0.000  26.036   0.000   0.000  27.504
 No NMR shielding tensors so no spin-rotation constants.
 Leave Link  601 at Thu Feb 26 01:28:55 2015, MaxMem= 1073741824 cpu:       3.9
 (Enter /apps/gaussian/g09_c01/g09/l701.exe)
 Compute integral second derivatives.
 ... and contract with generalized density number  0.
 Leave Link  701 at Thu Feb 26 01:28:55 2015, MaxMem= 1073741824 cpu:       4.4
 (Enter /apps/gaussian/g09_c01/g09/l702.exe)
 L702 exits ... SP integral derivatives will be done elsewhere.
 Leave Link  702 at Thu Feb 26 01:28:55 2015, MaxMem= 1073741824 cpu:       0.1
 (Enter /apps/gaussian/g09_c01/g09/l703.exe)
 Compute integral second derivatives, UseDBF=F ICtDFT=           0.
 Integral derivatives from FoFDir, PRISM(SPDF).
 Calling FoFJK, ICntrl=    100127 FMM=F ISym2X=1 I1Cent= 0 IOpClX= 0 NMat=1 NMatS=1 NMatT=0.
 FoFCou: FMM=F IPFlag=           0 FMFlag=      100000 FMFlg1=         800
         NFxFlg=           0 DoJE=F BraDBF=F KetDBF=F FulRan=T
         Omega=  0.000000  0.000000  1.000000  0.000000  0.000000 ICntrl=  100127 IOpCl=  0
         NMat0=    1 NMatS0=    1 NMatT0=    0 NMatD0=    1 NMtDS0=    0 NMtDT0=    0
         I1Cent=           0 NGrid=           0.
 Petite list used in FoFCou.
 Leave Link  703 at Thu Feb 26 01:37:36 2015, MaxMem= 1073741824 cpu:    4151.4
 (Enter /apps/gaussian/g09_c01/g09/l716.exe)
 Dipole        = 8.81380557D-15-5.52751679D-16 8.52133108D-01
 Polarizability= 1.94754815D+01-1.31659712D-05 1.94754955D+01
                 1.55552739D-05 3.57529861D-05 2.26698175D+01
 HyperPolar    = 1.56698160D+00-4.45798338D-01-1.56357787D+00
                 4.43949390D-01-2.19830562D+00-1.24907266D-04
                -2.19754746D+00-2.83696864D-04-1.93700016D-04
                 7.27173081D+00
 ***** Axes restored to original set *****
 -------------------------------------------------------------------
 Center     Atomic                   Forces (Hartrees/Bohr)
 Number     Number              X              Y              Z
 -------------------------------------------------------------------
      1        6           0.000000000    0.000000000   -0.000276928
      2        1           0.000301710    0.003248815    0.001089311
      3        1           0.002662701   -0.001885696    0.001089311
      4        1          -0.002964411   -0.001363119    0.001089311
      5        7           0.000000000    0.000000000    0.003627686
      6        1          -0.000410740   -0.004405506   -0.002206231
      7        1           0.004020651    0.001847042   -0.002206231
      8        1          -0.003609910    0.002558465   -0.002206231
 -------------------------------------------------------------------
 Cartesian Forces:  Max     0.004405506 RMS     0.002255253
 Force constants in Cartesian coordinates: 
                1             2             3             4             5 
      1  0.615642D+00
      2  0.000000D+00  0.615642D+00
      3  0.000000D+00  0.000000D+00  0.394028D+00
      4 -0.543768D-01 -0.229228D-01 -0.733293D-02  0.499185D-01
      5 -0.229235D-01 -0.298737D+00 -0.788288D-01  0.245515D-01  0.311636D+00
      6 -0.600535D-02 -0.645469D-01 -0.718070D-01  0.758366D-02  0.815190D-01
      7 -0.217795D+00  0.117273D+00 -0.646013D-01  0.437432D-02 -0.299665D-02
      8  0.117272D+00 -0.135319D+00  0.457649D-01  0.229511D-01 -0.127443D-01
      9 -0.528966D-01  0.374742D-01 -0.718071D-01  0.895220D-02 -0.422486D-02
     10 -0.257499D+00 -0.943489D-01  0.719342D-01  0.175845D-03  0.572665D-03
     11 -0.943497D-01 -0.956147D-01  0.330639D-01 -0.253750D-01 -0.854585D-02
     12  0.589020D-01  0.270727D-01 -0.718071D-01 -0.957765D-02 -0.250163D-02
     13 -0.958083D-01 -0.198454D-05  0.000000D+00 -0.668065D-03  0.696846D-03
     14  0.185171D-05 -0.958079D-01  0.000000D+00  0.696057D-03  0.675786D-02
     15  0.000000D+00  0.000000D+00 -0.142160D+00  0.308357D-03  0.332322D-02
     16  0.198071D-03  0.579315D-03 -0.222937D-03  0.365857D-03  0.574620D-04
     17  0.578557D-03  0.635956D-02 -0.240085D-02  0.574220D-04  0.977938D-03
     18 -0.306533D-02 -0.329281D-01 -0.121487D-01  0.207779D-03  0.223625D-02
     19  0.532061D-02  0.237893D-02  0.219062D-02  0.196969D-03  0.288542D-03
     20  0.237822D-02  0.123705D-02  0.100732D-02  0.732966D-03  0.235314D-03
     21  0.300492D-01  0.138094D-01 -0.121487D-01  0.287577D-03 -0.794910D-03
     22  0.431782D-02 -0.295719D-02 -0.196774D-02  0.134175D-04 -0.246929D-03
     23 -0.295781D-02  0.223985D-02  0.139346D-02 -0.691092D-03  0.419660D-03
     24 -0.269840D-01  0.191186D-01 -0.121486D-01 -0.428977D-03 -0.728380D-03
                6             7             8             9            10 
      6  0.864039D-01
      7  0.262235D-02  0.224945D+00
      8  0.954531D-02 -0.125603D+00  0.136610D+00
      9  0.512591D-02  0.668057D-01 -0.473271D-01  0.864039D-01
     10 -0.817267D-03 -0.171052D-01 -0.105499D-01  0.695530D-02  0.267469D+00
     11  0.986527D-02  0.153978D-01  0.873517D-02 -0.704368D-02  0.101051D+00
     12  0.512591D-02 -0.813494D-02 -0.564041D-02  0.512591D-02 -0.743893D-01
     13 -0.339506D-02  0.429825D-02 -0.356334D-02 -0.299170D-01  0.550464D-02
     14 -0.365052D-01 -0.356419D-02  0.179158D-02  0.211928D-01  0.286694D-02
     15 -0.209186D-01  0.272380D-02 -0.192867D-02 -0.209185D-01 -0.303229D-02
     16  0.171966D-03 -0.216598D-03 -0.494192D-03 -0.678421D-03 -0.880759D-04
     17  0.184347D-02 -0.497685D-04  0.648881D-03  0.537141D-03  0.188332D-03
     18 -0.648400D-02 -0.832200D-03  0.148406D-03  0.127639D-02  0.845284D-03
     19 -0.125968D-03  0.724274D-03  0.280679D-03 -0.731789D-03  0.874664D-03
     20 -0.856101D-03 -0.163484D-03 -0.291197D-03  0.462126D-03  0.236298D-03
     21  0.127639D-02 -0.416307D-03  0.735695D-03  0.127749D-02 -0.204054D-02
     22 -0.343185D-04  0.775171D-03 -0.293740D-03  0.151051D-02  0.668053D-03
     23 -0.864810D-03 -0.293780D-03  0.568623D-03 -0.107066D-02 -0.165612D-04
     24  0.127749D-02  0.183276D-02 -0.129807D-02 -0.648400D-02  0.544624D-03
               11            12            13            14            15 
     11  0.940857D-01
     12 -0.341919D-01  0.864039D-01
     13  0.286773D-02  0.333120D-01  0.699888D+00
     14  0.585276D-03  0.153124D-01  0.000000D+00  0.699888D+00
     15 -0.139459D-02 -0.209186D-01  0.000000D+00  0.000000D+00  0.500240D+00
     16  0.632495D-03  0.766107D-03 -0.667858D-01 -0.258528D-01 -0.957606D-02
     17  0.521153D-03  0.402685D-03 -0.258522D-01 -0.342024D+00 -0.102827D+00
     18 -0.731493D-05  0.127749D-02 -0.102517D-01 -0.110091D+00 -0.984415D-01
     19  0.236338D-03 -0.168248D-02 -0.295604D+00 -0.106256D+00  0.938390D-01
     20  0.469131D-03 -0.772810D-03 -0.106255D+00 -0.113207D+00  0.431205D-01
     21 -0.938186D-03 -0.648400D-02  0.100467D+00  0.461671D-01 -0.984415D-01
     22 -0.460985D-03  0.804389D-03 -0.250826D+00  0.132108D+00 -0.842629D-01
     23 -0.235771D-03  0.318959D-03  0.132108D+00 -0.157984D+00  0.597067D-01
     24  0.646504D-03  0.127639D-02 -0.902156D-01  0.639237D-01 -0.984415D-01
               16            17            18            19            20 
     16  0.619932D-01
     17  0.282401D-01  0.362648D+00
     18  0.105194D-01  0.112973D+00  0.103342D+00
     19 -0.471989D-03 -0.465241D-03 -0.620226D-03  0.311941D+00
     20 -0.318515D-01 -0.118268D-01  0.140122D-01  0.116067D+00  0.112700D+00
     21 -0.134251D-01 -0.405942D-02  0.558935D-02 -0.103097D+00 -0.473765D-01
     22  0.500549D-02 -0.269718D-02  0.319701D-02 -0.229816D-01  0.188556D-01
     23  0.286891D-01 -0.173043D-01  0.136562D-01 -0.125307D-01  0.106829D-01
     24  0.124451D-01 -0.646898D-02  0.558935D-02  0.102281D-01 -0.959680D-02
               21            22            23            24 
     21  0.103342D+00
     22 -0.118248D-01  0.263027D+00
     23 -0.754324D-02 -0.144307D+00  0.161613D+00
     24  0.558935D-02  0.925779D-01 -0.655966D-01  0.103342D+00
 Force constants in internal coordinates: 
                1             2             3             4             5 
      1  0.340309D+00
      2  0.210938D-02  0.340309D+00
      3  0.210940D-02  0.210937D-02  0.340309D+00
      4  0.390192D-02  0.390193D-02  0.390185D-02  0.253152D+00
      5 -0.144678D-02  0.340805D-03  0.340847D-03  0.555730D-02  0.407455D+00
      6  0.340799D-03  0.340869D-03 -0.144672D-02  0.555722D-02  0.285570D-02
      7  0.340847D-03 -0.144677D-02  0.340809D-03  0.555726D-02  0.285568D-02
      8  0.390157D-02  0.390255D-02 -0.134562D-02 -0.255800D-01  0.307368D-04
      9  0.390255D-02 -0.134561D-02  0.390158D-02 -0.255800D-01  0.312664D-04
     10  0.609378D-03 -0.370061D-02 -0.370096D-02  0.269015D-01  0.244582D-02
     11 -0.134561D-02  0.390158D-02  0.390256D-02 -0.255800D-01  0.928432D-03
     12 -0.370091D-02  0.609341D-03 -0.370064D-02  0.269014D-01 -0.174341D-02
     13 -0.370062D-02 -0.370090D-02  0.609449D-03  0.269014D-01 -0.174401D-02
     14  0.502684D-03  0.150003D-03  0.149534D-03  0.136077D-01 -0.518253D-02
     15  0.149992D-03  0.149526D-03  0.502659D-03  0.136078D-01 -0.418578D-02
     16  0.149501D-03  0.502665D-03  0.150038D-03  0.136078D-01 -0.418591D-02
     17 -0.351885D-03 -0.158596D-03 -0.351630D-03 -0.146239D-01  0.714938D-02
     18 -0.351608D-03 -0.351887D-03 -0.158592D-03 -0.146239D-01  0.715136D-02
     19 -0.158585D-03 -0.351613D-03 -0.351913D-03 -0.146239D-01  0.265598D-03
     20  0.000000D+00 -0.291162D-02  0.291148D-02  0.000000D+00  0.123040D-05
     21  0.000000D+00 -0.290862D-02  0.290998D-02  0.000000D+00  0.269870D-02
     22  0.206641D-05 -0.291011D-02  0.290845D-02  0.000000D+00 -0.269867D-02
     23  0.290995D-02  0.000000D+00 -0.290865D-02  0.000000D+00  0.437553D-03
     24  0.290845D-02  0.207150D-05 -0.291016D-02  0.000000D+00  0.313502D-02
     25  0.291144D-02  0.000000D+00 -0.291168D-02  0.000000D+00 -0.226235D-02
     26 -0.291013D-02  0.290844D-02  0.209469D-05  0.000000D+00 -0.435381D-03
     27 -0.291163D-02  0.291144D-02  0.000000D+00  0.000000D+00  0.226209D-02
     28 -0.290864D-02  0.290995D-02  0.000000D+00  0.000000D+00 -0.313528D-02
                6             7             8             9            10 
      6  0.407455D+00
      7  0.285566D-02  0.407455D+00
      8  0.928436D-03  0.312614D-04  0.522374D-01
      9  0.307444D-04  0.928428D-03  0.121541D-01  0.522374D-01
     10 -0.174340D-02 -0.174398D-02 -0.454055D-01 -0.454032D-01  0.131990D+00
     11  0.312640D-04  0.307313D-04  0.121541D-01  0.121541D-01  0.103087D-01
     12 -0.174397D-02  0.244580D-02 -0.454032D-01  0.103087D-01 -0.236660D-01
     13  0.244576D-02 -0.174341D-02  0.103087D-01 -0.454055D-01 -0.236659D-01
     14 -0.418595D-02 -0.418577D-02 -0.385995D-02 -0.385942D-02  0.170221D-01
     15 -0.518254D-02 -0.418592D-02  0.342004D-02 -0.385994D-02 -0.624928D-02
     16 -0.418576D-02 -0.518255D-02 -0.385942D-02  0.342004D-02 -0.625138D-02
     17  0.715137D-02  0.265601D-03  0.606009D-03  0.340858D-02 -0.458342D-02
     18  0.265602D-03  0.714939D-02  0.340858D-02  0.605763D-03 -0.458244D-02
     19  0.714940D-02  0.715137D-02  0.605767D-03  0.606009D-03  0.430679D-02
     20 -0.226236D-02  0.226209D-02 -0.589371D-02  0.589265D-02  0.120303D-05
     21  0.437525D-03 -0.313528D-02 -0.542238D-02  0.494994D-02  0.153800D-02
     22  0.313502D-02 -0.435381D-03 -0.495100D-02  0.542127D-02 -0.153540D-02
     23 -0.313526D-02  0.269871D-02  0.494993D-02  0.471479D-03  0.729480D-02
     24 -0.435377D-03 -0.269866D-02  0.542126D-02 -0.471234D-03  0.883159D-02
     25  0.226211D-02  0.123360D-05  0.589265D-02  0.000000D+00  0.575820D-02
     26 -0.269866D-02  0.313501D-02 -0.471236D-03 -0.495100D-02 -0.729517D-02
     27  0.122136D-05 -0.226236D-02  0.000000D+00 -0.589371D-02 -0.575838D-02
     28  0.269871D-02  0.437537D-03  0.471476D-03 -0.542238D-02 -0.883177D-02
               11            12            13            14            15 
     11  0.522374D-01
     12 -0.454055D-01  0.131991D+00
     13 -0.454032D-01 -0.236660D-01  0.131990D+00
     14  0.342004D-02 -0.624927D-02 -0.625142D-02  0.982955D-01
     15 -0.385941D-02 -0.625143D-02  0.170221D-01 -0.178077D-01  0.982955D-01
     16 -0.385995D-02  0.170221D-01 -0.624933D-02 -0.178077D-01 -0.178077D-01
     17  0.605762D-03  0.430680D-02 -0.458242D-02 -0.402202D-01 -0.402200D-01
     18  0.606012D-03 -0.458342D-02  0.430681D-02 -0.402200D-01  0.130796D-01
     19  0.340858D-02 -0.458245D-02 -0.458339D-02  0.130796D-01 -0.402202D-01
     20  0.000000D+00 -0.575836D-02  0.575816D-02  0.000000D+00 -0.235274D-02
     21  0.471483D-03 -0.883177D-02  0.729478D-02  0.386197D-02  0.150957D-02
     22 -0.471230D-03 -0.729519D-02  0.883159D-02 -0.386248D-02  0.537172D-02
     23 -0.542239D-02  0.153799D-02 -0.883177D-02  0.150957D-02 -0.537164D-02
     24 -0.495100D-02 -0.153541D-02 -0.729515D-02  0.537170D-02 -0.150932D-02
     25 -0.589372D-02  0.116456D-05 -0.575834D-02 -0.235274D-02  0.235282D-02
     26  0.542127D-02  0.883161D-02 -0.153542D-02 -0.150931D-02 -0.386248D-02
     27  0.589265D-02  0.575821D-02  0.119644D-05  0.235282D-02  0.000000D+00
     28  0.494993D-02  0.729479D-02  0.153801D-02 -0.537162D-02  0.386198D-02
               16            17            18            19            20 
     16  0.982955D-01
     17  0.130796D-01  0.536518D-01
     18 -0.402202D-01  0.936938D-02  0.536518D-01
     19 -0.402200D-01  0.936938D-02  0.936938D-02  0.536518D-01
     20  0.235281D-02 -0.721649D-02  0.721661D-02  0.000000D+00  0.142905D-01
     21 -0.537164D-02  0.608096D-02  0.567940D-03 -0.664879D-02  0.347644D-02
     22 -0.150933D-02 -0.567729D-03 -0.608084D-02  0.664866D-02  0.347647D-02
     23  0.386199D-02 -0.664880D-02  0.608095D-02  0.567933D-03  0.396438D-02
     24 -0.386246D-02  0.664865D-02 -0.567724D-03 -0.608084D-02 -0.684969D-02
     25  0.000000D+00  0.000000D+00 -0.721650D-02  0.721660D-02 -0.684967D-02
     26  0.537170D-02 -0.608083D-02  0.664865D-02 -0.567723D-03  0.396440D-02
     27 -0.235275D-02  0.721662D-02  0.000000D+00 -0.721650D-02 -0.684968D-02
     28  0.150957D-02  0.567929D-03 -0.664880D-02  0.608095D-02 -0.684966D-02
               21            22            23            24            25 
     21  0.149109D-01
     22  0.378663D-02  0.149109D-01
     23 -0.715985D-02 -0.747003D-02  0.149109D-01
     24  0.427457D-02 -0.715986D-02  0.378663D-02  0.149109D-01
     25 -0.684966D-02  0.396441D-02  0.347645D-02  0.347646D-02  0.142905D-01
     26 -0.747003D-02 -0.715988D-02  0.427456D-02 -0.715986D-02 -0.684971D-02
     27  0.396438D-02 -0.684971D-02 -0.684967D-02  0.396440D-02 -0.684970D-02
     28 -0.715984D-02  0.427456D-02 -0.715985D-02 -0.747003D-02  0.396437D-02
               26            27            28 
     26  0.149109D-01
     27  0.347648D-02  0.142905D-01
     28  0.378663D-02  0.347645D-02  0.149109D-01
 Leave Link  716 at Thu Feb 26 01:37:36 2015, MaxMem= 1073741824 cpu:       0.1
 (Enter /apps/gaussian/g09_c01/g09/l103.exe)

 GradGradGradGradGradGradGradGradGradGradGradGradGradGradGradGradGradGrad
 Berny optimization.
 Red2BG is reusing G-inverse.
 Internal  Forces:  Max     0.004925942 RMS     0.002054470
 Search for a local minimum.
 Step number   1 out of a maximum of   38
 All quantities printed in internal units (Hartrees-Bohrs-Radians)
 RMS Force = .20545D-02 SwitMx=.10000D-02 MixMth= 1
 Mixed Optimization -- RFO/linear search
 Second derivative matrix not updated -- analytic derivatives used.
 ITU=  0
     Eigenvalues ---    0.00177   0.04732   0.04732   0.04908   0.04908
     Eigenvalues ---    0.11874   0.13048   0.13048   0.13451   0.19366
     Eigenvalues ---    0.19366   0.29375   0.33861   0.33861   0.34521
     Eigenvalues ---    0.40506   0.40506   0.41491
 RFO step:  Lambda=-3.16788062D-04 EMin= 1.77349754D-03
 Linear search not attempted -- first point.
 Iteration  1 RMS(Cart)=  0.00676335 RMS(Int)=  0.00000840
 Iteration  2 RMS(Cart)=  0.00000768 RMS(Int)=  0.00000202
 Iteration  3 RMS(Cart)=  0.00000000 RMS(Int)=  0.00000202
 ClnCor:  largest displacement from symmetrization is 2.51D-08 for atom     3.
 Variable       Old X    -DE/DX   Delta X   Delta X   Delta X     New X
                                 (Linear)    (Quad)   (Total)
    R1        2.05946  -0.00344   0.00000  -0.00982  -0.00982   2.04964
    R2        2.05946  -0.00344   0.00000  -0.00982  -0.00982   2.04964
    R3        2.05946  -0.00344   0.00000  -0.00982  -0.00982   2.04964
    R4        2.86675  -0.00299   0.00000  -0.01030  -0.01030   2.85645
    R5        1.94289  -0.00493   0.00000  -0.01200  -0.01200   1.93089
    R6        1.94289  -0.00493   0.00000  -0.01200  -0.01200   1.93089
    R7        1.94289  -0.00493   0.00000  -0.01200  -0.01200   1.93089
    A1        1.93261   0.00002   0.00000  -0.00123  -0.00123   1.93138
    A2        1.93261   0.00002   0.00000  -0.00123  -0.00123   1.93138
    A3        1.88811  -0.00002   0.00000   0.00129   0.00129   1.88940
    A4        1.93261   0.00002   0.00000  -0.00123  -0.00123   1.93138
    A5        1.88811  -0.00002   0.00000   0.00129   0.00129   1.88940
    A6        1.88811  -0.00002   0.00000   0.00129   0.00129   1.88940
    A7        1.94749  -0.00038   0.00000  -0.00301  -0.00302   1.94447
    A8        1.94749  -0.00038   0.00000  -0.00301  -0.00302   1.94447
    A9        1.94749  -0.00038   0.00000  -0.00301  -0.00302   1.94447
   A10        1.87238   0.00041   0.00000   0.00324   0.00323   1.87561
   A11        1.87238   0.00041   0.00000   0.00324   0.00323   1.87561
   A12        1.87238   0.00041   0.00000   0.00324   0.00323   1.87561
    D1        3.14146   0.00000   0.00000   0.00014   0.00014  -3.14158
    D2       -1.04733   0.00000   0.00000   0.00014   0.00014  -1.04719
    D3        1.04707   0.00000   0.00000   0.00014   0.00014   1.04721
    D4       -1.04733   0.00000   0.00000   0.00014   0.00014  -1.04719
    D5        1.04707   0.00000   0.00000   0.00014   0.00014   1.04721
    D6        3.14146   0.00000   0.00000   0.00014   0.00014  -3.14158
    D7        1.04707   0.00000   0.00000   0.00014   0.00014   1.04721
    D8        3.14146   0.00000   0.00000   0.00014   0.00014  -3.14158
    D9       -1.04733   0.00000   0.00000   0.00014   0.00014  -1.04719
         Item               Value     Threshold  Converged?
 Maximum Force            0.004926     0.000002     NO 
 RMS     Force            0.002054     0.000001     NO 
 Maximum Displacement     0.011501     0.000006     NO 
 RMS     Displacement     0.006763     0.000004     NO 
 Predicted change in Energy=-1.585361D-04
 GradGradGradGradGradGradGradGradGradGradGradGradGradGradGradGradGradGrad

 Leave Link  103 at Thu Feb 26 01:37:36 2015, MaxMem= 1073741824 cpu:       0.1
 (Enter /apps/gaussian/g09_c01/g09/l202.exe)
                          Input orientation:                          
 ---------------------------------------------------------------------
 Center     Atomic      Atomic             Coordinates (Angstroms)
 Number     Number       Type             X           Y           Z
 ---------------------------------------------------------------------
      1          6           0        0.000000    0.000000   -0.799888
      2          1           0       -0.095443   -1.025605   -1.139637
      3          1           0       -0.840479    0.595458   -1.139637
      4          1           0        0.935921    0.430147   -1.139637
      5          7           0        0.000000    0.000000    0.711681
      6          1           0        0.088134    0.947182    1.084673
      7          1           0       -0.864350   -0.397264    1.084673
      8          1           0        0.776216   -0.549917    1.084673
 ---------------------------------------------------------------------
                    Distance matrix (angstroms):
                    1          2          3          4          5
     1  C    0.000000
     2  H    1.084622   0.000000
     3  H    1.084622   1.784075   0.000000
     4  H    1.084622   1.784075   1.784075   0.000000
     5  N    1.511569   2.118574   2.118574   2.118574   0.000000
     6  H    2.111040   2.978782   2.435895   2.435903   1.021784
     7  H    2.111040   2.435895   2.435903   2.978782   1.021784
     8  H    2.111040   2.435903   2.978782   2.435895   1.021784
                    6          7          8
     6  H    0.000000
     7  H    1.647653   0.000000
     8  H    1.647653   1.647653   0.000000
 Stoichiometry    CH6N(1+)
 Framework group  C3[C3(CN),X(H6)]
 Deg. of freedom     6
 Full point group                 C3      NOp   3
 RotChk:  IX=0 Diff= 0.00D+00
 Largest Abelian subgroup         C1      NOp   1
 Largest concise Abelian subgroup C1      NOp   1
                         Standard orientation:                         
 ---------------------------------------------------------------------
 Center     Atomic      Atomic             Coordinates (Angstroms)
 Number     Number       Type             X           Y           Z
 ---------------------------------------------------------------------
      1          6           0        0.000000    0.000000   -0.800811
      2          1           0        1.025605   -0.095443   -1.140561
      3          1           0       -0.595458   -0.840479   -1.140561
      4          1           0       -0.430147    0.935921   -1.140561
      5          7           0        0.000000    0.000000    0.710758
      6          1           0       -0.947182    0.088134    1.083749
      7          1           0        0.397264   -0.864350    1.083749
      8          1           0        0.549917    0.776216    1.083749
 ---------------------------------------------------------------------
 Rotational constants (GHZ):     85.0257276     20.0349299     20.0349299
 Leave Link  202 at Thu Feb 26 01:37:36 2015, MaxMem= 1073741824 cpu:       0.0
 (Enter /apps/gaussian/g09_c01/g09/l301.exe)
 Standard basis: Aug-CC-pVQZ (5D, 7F)
 Ernie: Thresh=  0.10000D-02 Tol=  0.10000D-05 Strict=F.
 Ernie:  6 primitive shells out of 172 were deleted.
 There are   436 symmetry adapted basis functions of A   symmetry.
 Integral buffers will be    131072 words long.
 Raffenetti 2 integral format.
 Two-electron integral symmetry is turned on.
   436 basis functions,   590 primitive gaussians,   540 cartesian basis functions
     9 alpha electrons        9 beta electrons
       nuclear repulsion energy        47.8085947752 Hartrees.
 IExCor=  402 DFT=T Ex+Corr=B3LYP ExCW=0 ScaHFX=  0.200000
 ScaDFX=  0.800000  0.720000  1.000000  0.810000 ScalE2=  1.000000  1.000000
 IRadAn=      5 IRanWt=     -1 IRanGd=            0 ICorTp=0
 NAtoms=    8 NActive=    8 NUniq=    4 SFac= 4.00D+00 NAtFMM=   60 NAOKFM=F Big=F
 Leave Link  301 at Thu Feb 26 01:37:36 2015, MaxMem= 1073741824 cpu:       0.3
 (Enter /apps/gaussian/g09_c01/g09/l302.exe)
 NPDir=0 NMtPBC=     1 NCelOv=     1 NCel=       1 NClECP=     1 NCelD=      1
         NCelK=      1 NCelE2=     1 NClLst=     1 CellRange=     0.0.
 One-electron integrals computed using PRISM.
 NBasis=   436 RedAO= T  NBF=   436
 NBsUse=   436 1.00D-06 NBFU=   436
 Precomputing XC quadrature grid using
 IXCGrd= 2 IRadAn=           5 IRanWt=          -1 IRanGd=           0 AccXCQ= 0.00D+00.
 NRdTot=     687 NPtTot=      184910 NUsed=      189836 NTot=      189868
 NSgBfM=   540   540   540   540   540 NAtAll=     8     8.
 Leave Link  302 at Thu Feb 26 01:37:36 2015, MaxMem= 1073741824 cpu:       3.7
 (Enter /apps/gaussian/g09_c01/g09/l303.exe)
 DipDrv:  MaxL=1.
 Leave Link  303 at Thu Feb 26 01:37:36 2015, MaxMem= 1073741824 cpu:       0.5
 (Enter /apps/gaussian/g09_c01/g09/l401.exe)
 Initial guess read from the read-write file.
 B after Tr=     0.000000    0.000000    0.000000
         Rot=    1.000000    0.000000    0.000000    0.000000 Ang=   0.00 deg.
 Guess basis will be translated and rotated to current coordinates.
 Initial guess orbital symmetries:
       Occupied  (A) (A) (A) (A) (E) (E) (A) (E) (E)
       Virtual   (A) (A) (E) (E) (E) (E) (A) (A) (E) (E) (A) (E)
                 (E) (A) (E) (E) (E) (E) (A) (E) (E) (A) (A) (E)
                 (E) (A) (A) (E) (E) (E) (E) (A) (E) (E) (A) (E)
                 (E) (A) (A) (E) (E) (A) (E) (E) (E) (E) (A) (E)
                 (E) (A) (A) (E) (E) (A) (A) (E) (E) (E) (E) (E)
                 (E) (A) (E) (E) (A) (A) (E) (E) (A) (A) (E) (E)
                 (A) (E) (E) (E) (E) (A) (E) (E) (E) (E) (A) (E)
                 (E) (A) (E) (E) (A) (E) (E) (A) (A) (E) (E) (E)
                 (E) (A) (A) (E) (E) (E) (E) (A) (E) (E) (A) (A)
                 (E) (E) (A) (E) (E) (A) (A) (E) (E) (E) (E) (E)
                 (E) (A) (A) (E) (E) (A) (A) (A) (E) (E) (E) (E)
                 (A) (E) (E) (E) (E) (E) (E) (E) (E) (A) (A) (A)
                 (E) (E) (A) (A) (E) (E) (E) (E) (A) (E) (E) (E)
                 (E) (A) (A) (A) (E) (E) (A) (E) (E) (E) (E) (A)
                 (A) (E) (E) (A) (E) (E) (A) (E) (E) (A) (E) (E)
                 (A) (E) (E) (A) (E) (E) (E) (E) (A) (E) (E) (A)
                 (E) (E) (A) (A) (E) (E) (A) (E) (E) (A) (E) (E)
                 (A) (E) (E) (A) (A) (E) (E) (E) (E) (A) (A) (E)
                 (E) (A) (E) (E) (E) (E) (A) (E) (E) (A) (E) (E)
                 (E) (E) (A) (A) (A) (E) (E) (A) (A) (E) (E) (E)
                 (E) (A) (A) (E) (E) (E) (E) (A) (E) (E) (A) (E)
                 (E) (E) (E) (A) (A) (E) (E) (E) (E) (A) (E) (E)
                 (A) (E) (E) (E) (E) (A) (A) (A) (E) (E) (E) (E)
                 (A) (E) (E) (A) (A) (E) (E) (A) (E) (E) (A) (E)
                 (E) (A) (A) (E) (E) (A) (A) (E) (E) (E) (E) (A)
                 (E) (E) (E) (E) (E) (E) (A) (A) (A) (E) (E) (A)
                 (E) (E) (A) (E) (E) (A) (E) (E) (A) (A) (E) (E)
                 (E) (E) (A) (E) (E) (E) (E) (A) (A) (E) (E) (E)
                 (E) (A) (A) (E) (E) (E) (E) (E) (E) (A) (E) (E)
                 (A) (A) (A) (E) (E) (A) (A) (A) (E) (E) (E) (E)
                 (A) (E) (E) (E) (E) (E) (E) (E) (E) (A) (A) (A)
                 (E) (E) (E) (E) (E) (E) (A) (A) (E) (E) (A) (E)
                 (E) (A) (A) (E) (E) (E) (E) (E) (E) (E) (E) (A)
                 (A) (A) (A) (E) (E) (E) (E) (A) (A) (E) (E) (E)
                 (E) (A) (A) (E) (E) (A) (E) (E) (A) (E) (E) (E)
                 (E) (A) (E) (E) (A) (A) (A)
 The electronic state of the initial guess is 1-A.
 Leave Link  401 at Thu Feb 26 01:37:37 2015, MaxMem= 1073741824 cpu:       5.4
 (Enter /apps/gaussian/g09_c01/g09/l502.exe)
 Closed shell SCF:
 Requested convergence on RMS density matrix=1.00D-08 within 128 cycles.
 Requested convergence on MAX density matrix=1.00D-06.
 Requested convergence on             energy=1.00D-06.
 No special actions if energy rises.
 Using DIIS extrapolation, IDIIS=  1040.
 Integral symmetry usage will be decided dynamically.
       189751 words used for storage of precomputed grid.
 IEnd=     1091081 IEndB=     1091081 NGot=  1073741824 MDV=  1072959524
 LenX=  1072959524 LenY=  1072667384
 Fock matrices will be formed incrementally for  20 cycles.

 Cycle   1  Pass 1  IDiag  1:
 FoFCou: FMM=F IPFlag=           0 FMFlag=      100000 FMFlg1=           0
         NFxFlg=           0 DoJE=F BraDBF=F KetDBF=F FulRan=T
         Omega=  0.000000  0.000000  1.000000  0.000000  0.000000 ICntrl=       0 IOpCl=  0
         NMat0=    1 NMatS0=    1 NMatT0=    0 NMatD0=    1 NMtDS0=    0 NMtDT0=    0
         I1Cent=           0 NGrid=           0.
 Petite list used in FoFCou.
 E= -96.2654916782268    
 DIIS: error= 9.93D-04 at cycle   1 NSaved=   1.
 NSaved= 1 IEnMin= 1 EnMin= -96.2654916782268     IErMin= 1 ErrMin= 9.93D-04
 ErrMax= 9.93D-04 EMaxC= 1.00D-01 BMatC= 1.89D-04 BMatP= 1.89D-04
 IDIUse=3 WtCom= 9.90D-01 WtEn= 9.93D-03
 Coeff-Com:  0.100D+01
 Coeff-En:   0.100D+01
 Coeff:      0.100D+01
 Gap=     0.543 Goal=   None    Shift=    0.000
 DSYEVD returned Info=         873 IAlg= 4 N=   436 NDim=   436 NE2=     2460245 trying DSYEV.
 RMSDP=2.06D-05 MaxDP=2.11D-03              OVMax= 2.87D-03

 Cycle   2  Pass 1  IDiag  1:
 RMSU=  1.45D-05    CP:  1.00D+00
 E= -96.2655347604141     Delta-E=       -0.000043082187 Rises=F Damp=F
 DIIS: error= 5.05D-04 at cycle   2 NSaved=   2.
 NSaved= 2 IEnMin= 2 EnMin= -96.2655347604141     IErMin= 2 ErrMin= 5.05D-04
 ErrMax= 5.05D-04 EMaxC= 1.00D-01 BMatC= 3.11D-05 BMatP= 1.89D-04
 IDIUse=3 WtCom= 9.95D-01 WtEn= 5.05D-03
 Coeff-Com:  0.206D+00 0.794D+00
 Coeff-En:   0.407D-01 0.959D+00
 Coeff:      0.205D+00 0.795D+00
 Gap=     0.413 Goal=   None    Shift=    0.000
 DSYEVD returned Info=       96139 IAlg= 4 N=   436 NDim=   436 NE2=     2460245 trying DSYEV.
 RMSDP=1.11D-05 MaxDP=7.52D-04 DE=-4.31D-05 OVMax= 2.06D-03

 Cycle   3  Pass 1  IDiag  1:
 RMSU=  6.73D-06    CP:  1.00D+00  7.42D-01
 E= -96.2655442567569     Delta-E=       -0.000009496343 Rises=F Damp=F
 DIIS: error= 3.86D-04 at cycle   3 NSaved=   3.
 NSaved= 3 IEnMin= 3 EnMin= -96.2655442567569     IErMin= 3 ErrMin= 3.86D-04
 ErrMax= 3.86D-04 EMaxC= 1.00D-01 BMatC= 2.02D-05 BMatP= 3.11D-05
 IDIUse=3 WtCom= 9.96D-01 WtEn= 3.86D-03
 Coeff-Com:  0.251D-02 0.446D+00 0.552D+00
 Coeff-En:   0.000D+00 0.395D+00 0.605D+00
 Coeff:      0.250D-02 0.446D+00 0.552D+00
 Gap=     0.413 Goal=   None    Shift=    0.000
 DSYEVD returned Info=       96139 IAlg= 4 N=   436 NDim=   436 NE2=     2460245 trying DSYEV.
 RMSDP=4.65D-06 MaxDP=2.99D-04 DE=-9.50D-06 OVMax= 1.00D-03

 Cycle   4  Pass 1  IDiag  1:
 RMSU=  7.86D-07    CP:  1.00D+00  8.44D-01  5.93D-01
 E= -96.2655601484815     Delta-E=       -0.000015891725 Rises=F Damp=F
 DIIS: error= 4.37D-05 at cycle   4 NSaved=   4.
 NSaved= 4 IEnMin= 4 EnMin= -96.2655601484815     IErMin= 4 ErrMin= 4.37D-05
 ErrMax= 4.37D-05 EMaxC= 1.00D-01 BMatC= 1.77D-07 BMatP= 2.02D-05
 IDIUse=1 WtCom= 1.00D+00 WtEn= 0.00D+00
 Coeff-Com: -0.852D-03 0.200D+00 0.258D+00 0.544D+00
 Coeff:     -0.852D-03 0.200D+00 0.258D+00 0.544D+00
 Gap=     0.413 Goal=   None    Shift=    0.000
 DSYEVD returned Info=         873 IAlg= 4 N=   436 NDim=   436 NE2=     2460245 trying DSYEV.
 RMSDP=5.63D-07 MaxDP=3.87D-05 DE=-1.59D-05 OVMax= 1.55D-04

 Cycle   5  Pass 1  IDiag  1:
 RMSU=  2.09D-07    CP:  1.00D+00  8.52D-01  5.80D-01  6.11D-01
 E= -96.2655602937042     Delta-E=       -0.000000145223 Rises=F Damp=F
 DIIS: error= 8.19D-06 at cycle   5 NSaved=   5.
 NSaved= 5 IEnMin= 5 EnMin= -96.2655602937042     IErMin= 5 ErrMin= 8.19D-06
 ErrMax= 8.19D-06 EMaxC= 1.00D-01 BMatC= 8.51D-09 BMatP= 1.77D-07
 IDIUse=1 WtCom= 1.00D+00 WtEn= 0.00D+00
 Coeff-Com: -0.646D-03 0.569D-01 0.743D-01 0.235D+00 0.635D+00
 Coeff:     -0.646D-03 0.569D-01 0.743D-01 0.235D+00 0.635D+00
 Gap=     0.413 Goal=   None    Shift=    0.000
 DSYEVD returned Info=         873 IAlg= 4 N=   436 NDim=   436 NE2=     2460245 trying DSYEV.
 RMSDP=1.11D-07 MaxDP=1.09D-05 DE=-1.45D-07 OVMax= 2.16D-05

 Cycle   6  Pass 1  IDiag  1:
 RMSU=  5.48D-08    CP:  1.00D+00  8.51D-01  5.81D-01  6.48D-01  7.84D-01
 E= -96.2655603005770     Delta-E=       -0.000000006873 Rises=F Damp=F
 DIIS: error= 9.55D-07 at cycle   6 NSaved=   6.
 NSaved= 6 IEnMin= 6 EnMin= -96.2655603005770     IErMin= 6 ErrMin= 9.55D-07
 ErrMax= 9.55D-07 EMaxC= 1.00D-01 BMatC= 8.01D-11 BMatP= 8.51D-09
 IDIUse=1 WtCom= 1.00D+00 WtEn= 0.00D+00
 Coeff-Com: -0.805D-04-0.173D-03-0.388D-03 0.153D-01 0.110D+00 0.875D+00
 Coeff:     -0.805D-04-0.173D-03-0.388D-03 0.153D-01 0.110D+00 0.875D+00
 Gap=     0.413 Goal=   None    Shift=    0.000
 DSYEVD returned Info=         873 IAlg= 4 N=   436 NDim=   436 NE2=     2460245 trying DSYEV.
 RMSDP=1.25D-08 MaxDP=1.19D-06 DE=-6.87D-09 OVMax= 2.22D-06

 Cycle   7  Pass 1  IDiag  1:
 RMSU=  7.37D-09    CP:  1.00D+00  8.51D-01  5.81D-01  6.48D-01  7.99D-01
                    CP:  1.02D+00
 E= -96.2655603006433     Delta-E=       -0.000000000066 Rises=F Damp=F
 DIIS: error= 5.89D-08 at cycle   7 NSaved=   7.
 NSaved= 7 IEnMin= 7 EnMin= -96.2655603006433     IErMin= 7 ErrMin= 5.89D-08
 ErrMax= 5.89D-08 EMaxC= 1.00D-01 BMatC= 2.79D-13 BMatP= 8.01D-11
 IDIUse=1 WtCom= 1.00D+00 WtEn= 0.00D+00
 Coeff-Com:  0.531D-05-0.518D-03-0.591D-03-0.146D-02-0.715D-02-0.232D-01
 Coeff-Com:  0.103D+01
 Coeff:      0.531D-05-0.518D-03-0.591D-03-0.146D-02-0.715D-02-0.232D-01
 Coeff:      0.103D+01
 Gap=     0.413 Goal=   None    Shift=    0.000
 DSYEVD returned Info=         873 IAlg= 4 N=   436 NDim=   436 NE2=     2460245 trying DSYEV.
 RMSDP=1.95D-09 MaxDP=3.04D-07 DE=-6.63D-11 OVMax= 2.20D-07

 SCF Done:  E(RB3LYP) =  -96.2655603006     A.U. after    7 cycles
             Convg  =    0.1954D-08             -V/T =  2.0055
 KE= 9.574176705707D+01 PE=-3.138276257870D+02 EE= 7.401170365411D+01
 Leave Link  502 at Thu Feb 26 01:39:39 2015, MaxMem= 1073741824 cpu:     969.6
 (Enter /apps/gaussian/g09_c01/g09/l801.exe)
 Range of M.O.s used for correlation:     1   436
 NBasis=   436 NAE=     9 NBE=     9 NFC=     0 NFV=     0
 NROrb=    436 NOA=     9 NOB=     9 NVA=   427 NVB=   427

 **** Warning!!: The largest alpha MO coefficient is  0.14804193D+03

 Leave Link  801 at Thu Feb 26 01:39:39 2015, MaxMem= 1073741824 cpu:       0.1
 (Enter /apps/gaussian/g09_c01/g09/l1002.exe)
 Minotr:  Closed shell wavefunction.
          Direct CPHF calculation.
          Differentiating once with respect to electric field.
                with respect to dipole field.
          Electric field/nuclear overlap derivatives assumed to be zero.
          Using symmetry in CPHF.
          Requested convergence is 1.0D-08 RMS, and 1.0D-07 maximum.
          Secondary convergence is 1.0D-12 RMS, and 1.0D-12 maximum.
          NewPWx=F KeepS1=T KeepF1=T KeepIn=T MapXYZ=F SortEE=F KeepMc=T.
          MDV=    1073741756 using IRadAn=       1.
 Generate precomputed XC quadrature information.
          Solving linear equations simultaneously, MaxMat=       0.
          There are     3 degrees of freedom in the 1st order CPHF.  IDoFFX=0.
      3 vectors produced by pass  0 Test12= 1.28D-13 3.33D-08 XBig12= 1.06D+01 1.37D+00.
 AX will form     3 AO Fock derivatives at one time.
 Integrals replicated using symmetry in FoFDir.
 MinBra= 0 MaxBra= 4 Meth= 1.
 IRaf=       0 NMat=   3 IRICut=       1 DoRegI=T DoRafI=F ISym2E= 2 JSym2E=2.
      3 vectors produced by pass  1 Test12= 1.28D-13 3.33D-08 XBig12= 6.60D-01 3.45D-01.
      3 vectors produced by pass  2 Test12= 1.28D-13 3.33D-08 XBig12= 1.56D-01 1.11D-01.
      3 vectors produced by pass  3 Test12= 1.28D-13 3.33D-08 XBig12= 7.85D-03 2.39D-02.
      3 vectors produced by pass  4 Test12= 1.28D-13 3.33D-08 XBig12= 1.75D-03 8.46D-03.
      3 vectors produced by pass  5 Test12= 1.28D-13 3.33D-08 XBig12= 5.92D-05 2.06D-03.
      3 vectors produced by pass  6 Test12= 1.28D-13 3.33D-08 XBig12= 2.45D-06 4.06D-04.
      3 vectors produced by pass  7 Test12= 1.28D-13 3.33D-08 XBig12= 4.26D-08 7.58D-05.
      1 vectors produced by pass  8 Test12= 1.28D-13 3.33D-08 XBig12= 1.55D-10 3.54D-06.
      1 vectors produced by pass  9 Test12= 1.28D-13 3.33D-08 XBig12= 2.81D-13 1.58D-07.
 Inverted reduced A of dimension    26 with in-core refinement.
 End of Minotr Frequency-dependent properties file   721 does not exist.
 End of Minotr Frequency-dependent properties file   722 does not exist.
 Leave Link 1002 at Thu Feb 26 01:51:51 2015, MaxMem= 1073741824 cpu:    5844.6
[...]
      4        1          -0.000000188   -0.000000006    0.000000112
      5        7           0.000000000    0.000000000   -0.000000355
      6        1           0.000000025    0.000000059    0.000000098
      7        1          -0.000000063   -0.000000008    0.000000098
      8        1           0.000000038   -0.000000051    0.000000098
 -------------------------------------------------------------------
 Cartesian Forces:  Max     0.000000355 RMS     0.000000127
 Force constants in Cartesian coordinates: 
                1             2             3             4             5 
      1  0.627613D+00
      2  0.000000D+00  0.627613D+00
      3  0.000000D+00  0.000000D+00  0.403060D+00
      4 -0.535604D-01 -0.238232D-01 -0.766028D-02  0.490013D-01
      5 -0.238233D-01 -0.307288D+00 -0.822726D-01  0.254727D-01  0.320296D+00
      6 -0.631483D-02 -0.678147D-01 -0.721871D-01  0.791211D-02  0.849831D-01
      7 -0.223224D+00  0.121779D+00 -0.674200D-01  0.444218D-02 -0.305760D-02
      8  0.121779D+00 -0.137624D+00  0.477703D-01  0.232729D-01 -0.129059D-01
      9 -0.555719D-01  0.393761D-01 -0.721871D-01  0.911017D-02 -0.429959D-02
     10 -0.264487D+00 -0.979552D-01  0.750803D-01  0.184594D-03  0.599481D-03
     11 -0.979554D-01 -0.963606D-01  0.345023D-01 -0.257311D-01 -0.864835D-02
     12  0.618867D-01  0.284386D-01 -0.721872D-01 -0.974716D-02 -0.254438D-02
     13 -0.964323D-01  0.000000D+00  0.000000D+00 -0.651506D-03  0.708903D-03
     14  0.000000D+00 -0.964319D-01  0.000000D+00  0.708966D-03  0.690012D-02
     15  0.000000D+00  0.000000D+00 -0.148407D+00  0.318294D-03  0.341917D-02
     16  0.275448D-03  0.579524D-03 -0.219870D-03  0.376502D-03  0.565001D-04
     17  0.579613D-03  0.645211D-02 -0.236327D-02  0.564992D-04  0.978300D-03
     18 -0.312217D-02 -0.335606D-01 -0.126971D-01  0.209659D-03  0.225196D-02
     19  0.540991D-02  0.238476D-02  0.215654D-02  0.197437D-03  0.295058D-03
     20  0.238490D-02  0.131767D-02  0.991189D-03  0.745650D-03  0.240151D-03
     21  0.306254D-01  0.140764D-01 -0.126971D-01  0.290747D-03 -0.802617D-03
     22  0.440603D-02 -0.296451D-02 -0.193672D-02  0.100389D-04 -0.251814D-03
     23 -0.296427D-02  0.232157D-02  0.137201D-02 -0.702436D-03  0.427334D-03
     24 -0.275033D-01  0.194841D-01 -0.126971D-01 -0.433519D-03 -0.735175D-03
                6             7             8             9            10 
      6  0.869564D-01
      7  0.267008D-02  0.230412D+00
      8  0.971348D-02 -0.130210D+00  0.138885D+00
      9  0.518622D-02  0.696415D-01 -0.493436D-01  0.869564D-01
     10 -0.831531D-03 -0.173224D-01 -0.107072D-01  0.707708D-02  0.274532D+00
     11  0.100394D-01  0.156234D-01  0.885865D-02 -0.716910D-02  0.104738D+00
     12  0.518622D-02 -0.827864D-02 -0.573985D-02  0.518622D-02 -0.775536D-01
     13 -0.344627D-02  0.439828D-02 -0.362444D-02 -0.303522D-01  0.562630D-02
     14 -0.370374D-01 -0.362444D-02  0.185038D-02  0.215033D-01  0.291555D-02
     15 -0.212106D-01  0.280192D-02 -0.198525D-02 -0.212106D-01 -0.312036D-02
     16  0.172882D-03 -0.221167D-03 -0.503969D-03 -0.683615D-03 -0.901920D-04
     17  0.185910D-02 -0.533768D-04  0.658755D-03  0.549326D-03  0.193945D-03
     18 -0.657438D-02 -0.840461D-03  0.149515D-03  0.132153D-02  0.853440D-03
     19 -0.133923D-03  0.736212D-03  0.283179D-03 -0.744698D-03  0.876780D-03
     20 -0.866691D-03 -0.167443D-03 -0.298839D-03  0.462871D-03  0.232336D-03
     21  0.132153D-02 -0.419920D-03  0.743026D-03  0.132169D-02 -0.205509D-02
     22 -0.285095D-04  0.778920D-03 -0.288836D-03  0.152359D-02  0.680113D-03
     23 -0.876363D-03 -0.288836D-03  0.575881D-03 -0.107927D-02 -0.163849D-04
     24  0.132169D-02  0.184543D-02 -0.130755D-02 -0.657438D-02  0.549714D-03
               11            12            13            14            15 
     11  0.947649D-01
     12 -0.356395D-01  0.869564D-01
     13  0.291550D-02  0.337985D-01  0.720360D+00
     14  0.622449D-03  0.155341D-01  0.000000D+00  0.720359D+00
     15 -0.143396D-02 -0.212106D-01  0.000000D+00  0.000000D+00  0.507203D+00
     16  0.644567D-03  0.773207D-03 -0.658252D-01 -0.272640D-01 -0.100632D-01
     17  0.527565D-03  0.413491D-03 -0.272640D-01 -0.356375D+00 -0.108172D+00
     18 -0.785147D-05  0.132169D-02 -0.107305D-01 -0.115349D+00 -0.983880D-01
     19  0.232337D-03 -0.169647D-02 -0.307349D+00 -0.112180D+00  0.987113D-01
     20  0.478021D-03 -0.779830D-03 -0.112180D+00 -0.114851D+00  0.453710D-01
     21 -0.944411D-03 -0.657438D-02  0.105261D+00  0.483816D-01 -0.983880D-01
     22 -0.466977D-03  0.817538D-03 -0.260126D+00  0.139444D+00 -0.886480D-01
     23 -0.242525D-03  0.317365D-03  0.139444D+00 -0.162074D+00  0.628010D-01
     24  0.653103D-03  0.132153D-02 -0.945300D-01  0.669674D-01 -0.983880D-01
               16            17            18            19            20 
     16  0.606827D-01
     17  0.296904D-01  0.377088D+00
     18  0.110125D-01  0.118381D+00  0.103688D+00
     19 -0.372907D-03 -0.411588D-03 -0.654184D-03  0.323700D+00
     20 -0.323508D-01 -0.118911D-01  0.142505D-01  0.122162D+00  0.114071D+00
     21 -0.136603D-01 -0.410895D-02  0.566428D-02 -0.108027D+00 -0.496533D-01
     22  0.517499D-02 -0.279149D-02  0.327169D-02 -0.231981D-01  0.191727D-01
     23  0.291478D-01 -0.174390D-01  0.138846D-01 -0.127666D-01  0.109341D-01
     24  0.126684D-01 -0.655870D-02  0.566428D-02  0.103886D-01 -0.977569D-02
               21            22            23            24 
     21  0.103688D+00
     22 -0.120142D-01  0.272274D+00
     23 -0.769178D-02 -0.151853D+00  0.165497D+00
     24  0.566428D-02  0.970146D-01 -0.687276D-01  0.103688D+00
 Red2BG is reusing G-inverse.
 Force constants in internal coordinates: 
                1             2             3             4             5 
      1  0.350318D+00
      2  0.210244D-02  0.350318D+00
      3  0.210247D-02  0.210243D-02  0.350318D+00
      4  0.393255D-02  0.393256D-02  0.393248D-02  0.261924D+00
      5 -0.144668D-02  0.340300D-03  0.340075D-03  0.564167D-02  0.423861D+00
      6  0.340294D-03  0.340097D-03 -0.144662D-02  0.564159D-02  0.283405D-02
      7  0.340074D-03 -0.144668D-02  0.340305D-03  0.564163D-02  0.283404D-02
      8  0.391712D-02  0.391853D-02 -0.133441D-02 -0.257745D-01  0.438573D-04
      9  0.391853D-02 -0.133440D-02  0.391713D-02 -0.257745D-01  0.438399D-04
     10  0.639191D-03 -0.372768D-02 -0.372825D-02  0.270252D-01  0.244816D-02
     11 -0.133441D-02  0.391712D-02  0.391854D-02 -0.257744D-01  0.950751D-03
     12 -0.372819D-02  0.639150D-03 -0.372772D-02  0.270250D-01 -0.176885D-02
     13 -0.372770D-02 -0.372818D-02  0.639260D-03  0.270251D-01 -0.176815D-02
     14  0.531896D-03  0.135754D-03  0.135789D-03  0.141048D-01 -0.519414D-02
     15  0.135742D-03  0.135780D-03  0.531870D-03  0.141049D-01 -0.423172D-02
     16  0.135755D-03  0.531876D-03  0.135791D-03  0.141048D-01 -0.423182D-02
     17 -0.355125D-03 -0.148546D-03 -0.355093D-03 -0.150764D-01  0.717030D-02
     18 -0.355070D-03 -0.355127D-03 -0.148543D-03 -0.150764D-01  0.717195D-02
     19 -0.148535D-03 -0.355075D-03 -0.355154D-03 -0.150764D-01  0.256164D-03
     20  0.000000D+00 -0.292683D-02  0.292670D-02  0.000000D+00  0.110036D-05
     21  0.308046D-05 -0.293118D-02  0.292890D-02  0.000000D+00  0.271151D-02
     22 -0.128630D-05 -0.292896D-02  0.293102D-02  0.000000D+00 -0.271134D-02
     23  0.292888D-02  0.307467D-05 -0.293121D-02  0.000000D+00  0.441706D-03
     24  0.293102D-02 -0.128058D-05 -0.292901D-02  0.000000D+00  0.315212D-02
     25  0.292665D-02  0.000000D+00 -0.292689D-02  0.000000D+00 -0.227074D-02
     26 -0.292898D-02  0.293101D-02 -0.125646D-05  0.000000D+00 -0.439887D-03
     27 -0.292683D-02  0.292665D-02  0.000000D+00  0.000000D+00  0.227052D-02
     28 -0.293120D-02  0.292887D-02  0.306440D-05  0.000000D+00 -0.315233D-02
                6             7             8             9            10 
      6  0.423861D+00
      7  0.283402D-02  0.423861D+00
      8  0.950755D-03  0.438353D-04  0.526200D-01
      9  0.438654D-04  0.950747D-03  0.122261D-01  0.526200D-01
     10 -0.176885D-02 -0.176811D-02 -0.456714D-01 -0.456698D-01  0.132567D+00
     11  0.438377D-04  0.438519D-04  0.122261D-01  0.122262D-01  0.105291D-01
     12 -0.176811D-02  0.244814D-02 -0.456698D-01  0.105291D-01 -0.239167D-01
     13  0.244811D-02 -0.176885D-02  0.105291D-01 -0.456714D-01 -0.239167D-01
     14 -0.423185D-02 -0.423172D-02 -0.388079D-02 -0.388091D-02  0.171250D-01
     15 -0.519415D-02 -0.423183D-02  0.347171D-02 -0.388078D-02 -0.631328D-02
     16 -0.423171D-02 -0.519416D-02 -0.388091D-02  0.347171D-02 -0.631351D-02
     17  0.717196D-02  0.256167D-03  0.592449D-03  0.340062D-02 -0.456341D-02
     18  0.256168D-03  0.717031D-02  0.340063D-02  0.592400D-03 -0.456342D-02
     19  0.717031D-02  0.717196D-02  0.592403D-03  0.592449D-03  0.431883D-02
     20 -0.227075D-02  0.227053D-02 -0.590387D-02  0.590320D-02  0.000000D+00
     21  0.441677D-03 -0.315233D-02 -0.542880D-02  0.495319D-02  0.154456D-02
     22  0.315211D-02 -0.439887D-03 -0.495386D-02  0.542827D-02 -0.154289D-02
     23 -0.315231D-02  0.271152D-02  0.495319D-02  0.475112D-03  0.735579D-02
     24 -0.439883D-03 -0.271133D-02  0.542826D-02 -0.474898D-03  0.889960D-02
     25  0.227055D-02  0.110414D-05  0.590320D-02  0.000000D+00  0.581215D-02
     26 -0.271134D-02  0.315211D-02 -0.474899D-03 -0.495387D-02 -0.735618D-02
     27  0.109116D-05 -0.227075D-02  0.000000D+00 -0.590388D-02 -0.581237D-02
     28  0.271153D-02  0.441690D-03  0.475109D-03 -0.542880D-02 -0.889982D-02
               11            12            13            14            15 
     11  0.526200D-01
     12 -0.456714D-01  0.132567D+00
     13 -0.456698D-01 -0.239167D-01  0.132567D+00
     14  0.347171D-02 -0.631327D-02 -0.631355D-02  0.996403D-01
     15 -0.388090D-02 -0.631357D-02  0.171250D-01 -0.179178D-01  0.996404D-01
     16 -0.388080D-02  0.171250D-01 -0.631333D-02 -0.179178D-01 -0.179178D-01
     17  0.592398D-03  0.431884D-02 -0.456340D-02 -0.405563D-01 -0.405564D-01
     18  0.592453D-03 -0.456341D-02  0.431885D-02 -0.405563D-01  0.129130D-01
     19  0.340062D-02 -0.456343D-02 -0.456338D-02  0.129130D-01 -0.405563D-01
     20  0.000000D+00 -0.581235D-02  0.581211D-02  0.000000D+00 -0.243730D-02
     21  0.475116D-03 -0.889981D-02  0.735577D-02  0.396419D-02  0.152703D-02
     22 -0.474893D-03 -0.735620D-02  0.889960D-02 -0.396458D-02  0.549148D-02
     23 -0.542880D-02  0.154456D-02 -0.889982D-02  0.152702D-02 -0.549157D-02
     24 -0.495387D-02 -0.154290D-02 -0.735616D-02  0.549146D-02 -0.152724D-02
     25 -0.590388D-02  0.000000D+00 -0.581233D-02 -0.243730D-02  0.243721D-02
     26  0.542826D-02  0.889962D-02 -0.154291D-02 -0.152723D-02 -0.396459D-02
     27  0.590320D-02  0.581215D-02  0.000000D+00  0.243721D-02  0.000000D+00
     28  0.495319D-02  0.735577D-02  0.154458D-02 -0.549155D-02  0.396419D-02
               16            17            18            19            20 
     16  0.996404D-01
     17  0.129131D-01  0.538890D-01
     18 -0.405563D-01  0.950407D-02  0.538890D-01
     19 -0.405563D-01  0.950406D-02  0.950406D-02  0.538890D-01
     20  0.243720D-02 -0.726676D-02  0.726701D-02  0.000000D+00  0.143881D-01
     21 -0.549158D-02  0.612702D-02  0.570092D-03 -0.669673D-02  0.349751D-02
     22 -0.152724D-02 -0.569907D-03 -0.612677D-02  0.669705D-02  0.349761D-02
     23  0.396421D-02 -0.669673D-02  0.612701D-02  0.570084D-03  0.399550D-02
     24 -0.396456D-02  0.669704D-02 -0.569902D-03 -0.612678D-02 -0.689508D-02
     25  0.000000D+00  0.000000D+00 -0.726677D-02  0.726700D-02 -0.689499D-02
     26  0.549146D-02 -0.612677D-02  0.669705D-02 -0.569901D-03  0.399558D-02
     27 -0.243731D-02  0.726701D-02  0.000000D+00 -0.726676D-02 -0.689500D-02
     28  0.152702D-02  0.570081D-03 -0.669673D-02  0.612701D-02 -0.689490D-02
               21            22            23            24            25 
     21  0.150137D-01
     22  0.381040D-02  0.150139D-01
     23 -0.720779D-02 -0.752068D-02  0.150137D-01
     24  0.430838D-02 -0.720788D-02  0.381041D-02  0.150139D-01
     25 -0.689490D-02  0.399560D-02  0.349752D-02  0.349760D-02  0.143881D-01
     26 -0.752068D-02 -0.720789D-02  0.430838D-02 -0.720788D-02 -0.689510D-02
     27  0.399550D-02 -0.689510D-02 -0.689491D-02  0.399558D-02 -0.689501D-02
     28 -0.720779D-02  0.430838D-02 -0.720780D-02 -0.752068D-02  0.399548D-02
               26            27            28 
     26  0.150139D-01
     27  0.349762D-02  0.143881D-01
     28  0.381040D-02  0.349752D-02  0.150137D-01
 Leave Link  716 at Thu Feb 26 05:16:56 2015, MaxMem= 1073741824 cpu:       0.1
 (Enter /apps/gaussian/g09_c01/g09/l9999.exe)
 1\1\GINC-CX1-3-9-1\Freq\RB3LYP\Aug-CC-pVQZ\C1H6N1(1+)\JMF02\26-Feb-201
 5\0\\#p opt(VeryTight,CalcAll,Raman) Integral(Grid=UltraFine) b3lyp/AU
 G-cc-pVQZ\\Autjob by noodles.sh | Great noodly basis sets\\1,1\C,-0.00
 00000526,0.0000000526,-0.7999590178\H,-0.0954632545,-1.0256752752,-1.1
 397087226\H,-0.8405293416,0.5955112744,-1.1397087226\H,0.9359924382,0.
 4301641586,-1.1397087226\N,-0.0000000526,0.0000000526,0.7116972749\H,0
 .0881283278,0.9472807967,1.0847622887\H,-0.8644334317,-0.3973189032,1.
 0847622887\H,0.776304946,-0.5499617356,1.0847622887\\Version=EM64L-G09
 RevC.01\State=1-A\HF=-96.2655603\RMSD=6.294e-09\RMSF=1.268e-07\ZeroPoi
 nt=0.0790855\Thermal=0.0825596\Dipole=0.,0.,0.84867\DipoleDeriv=0.0990
 83,0.0000034,0.0000045,0.0000009,0.0990816,0.0000025,-0.0000008,-0.000
 0017,0.5581748,0.117764,-0.007833,0.0010279,-0.0078308,0.0343449,0.011
 0537,0.0032444,0.0348472,0.0485504,0.0619826,0.0400363,0.0090587,0.040
 0374,0.0901273,-0.0064174,0.0285566,-0.0202335,0.0485497,0.0484159,-0.
 0322072,-0.010089,-0.0322049,0.1036918,-0.0046376,-0.0318008,-0.014613
 6,0.0485504,-0.1404871,0.0000026,0.0000026,-0.0000017,-0.1404906,0.000
 0007,-0.0000009,-0.0000002,-0.3750446,0.2441035,0.0050627,0.0041423,0.
 005064,0.298059,0.0445275,0.0030478,0.0327645,0.2237402,0.2889546,0.02
 08304,-0.0406336,0.020832,0.2532077,-0.0186766,-0.0298981,-0.0137422,0
 .2237403,0.2801849,-0.0258948,0.03649,-0.0258947,0.2619774,-0.0258511,
 0.026851,-0.0190215,0.2237398\Polar=19.2486696,0.0000124,19.2486549,0.
 0000354,-0.0000149,22.3906762\PolarDeriv=-0.8897812,-3.1163886,0.89163
 72,2.2226449,0.0001811,0.0009415,-3.1158915,0.8911512,3.1156558,-0.000
 2609,2.2224878,-0.0017172,2.4888985,-0.0003091,2.4903535,0.0000009,-0.
 0003121,-3.6193263,-0.2045195,-0.6154004,-0.4544877,-0.8198528,-0.1095
 425,-0.2237717,-1.041139,-0.4191145,-6.0804909,-0.1101626,-2.0084586,-
 2.4105801,-0.7836905,-0.0823232,-1.6625189,-0.1352449,-1.4534189,-1.48
 38655,-3.9319364,1.8632997,-1.9079344,-1.61451,0.5696768,-1.977303,2.1
 081911,-1.5561237,2.026153,0.569122,-1.211763,1.399838,-1.3714914,0.42
 14953,-1.0748469,-1.1907105,0.8438517,-1.4829162,4.9512476,1.6085507,1
 .5455703,-1.8084067,-0.4596908,2.200736,1.7888906,1.1589596,1.1981971,
 -0.4594843,-1.0222357,1.0115427,-1.5132568,-0.3390518,-0.9315906,1.325
 9945,0.6094757,-1.483504,0.6201644,2.168815,-0.6200579,-2.2141298,0.00
 04381,-0.0007853,2.1687088,-0.6198958,-2.168263,0.0009109,-2.2148956,0
 .0012589,-1.9064097,0.0003667,-1.9079323,-0.0000644,0.0002054,2.38238,
 0.1957704,0.6391757,0.3210863,0.7694773,0.119874,0.2270757,0.8682489,0
 .3005014,4.6917057,0.1206087,2.0537629,2.4423963,0.5754779,0.084846,1.
 4818794,0.1406753,1.5073179,1.8961851,-3.8828432,-1.1714302,-1.1908695
 ,1.8364763,0.4955708,-2.2286419,-1.2671452,-0.9822034,-1.0643968,0.495
 7069,0.9864259,-1.0245606,1.3288441,0.3500024,0.7282912,-1.3754926,-0.
 6318973,1.8959202,3.1419187,-1.3766606,1.414916,1.6282492,-0.6165027,2
 .0017285,-1.5099018,1.2266814,-1.7184251,-0.6164654,1.1946843,-1.41820
 81,1.1817257,-0.434987,0.8763768,1.2348583,-0.8752242,1.8952242\HyperP
 olar=0.4442662,1.5597915,-0.4472914,-1.563462,-2.2980187,0.0002477,-2.
 2989927,-0.0002798,0.0002311,7.0242264\PG=C03 [C3(C1N1),X(H6)]\NImag=0
 \\0.62761258,-0.00000033,0.62761265,-0.00000012,0.00000008,0.40306016,
 -0.05356044,-0.02382322,-0.00766028,0.04900127,-0.02382334,-0.30728754
 ,-0.08227264,0.02547269,0.32029587,-0.00631483,-0.06781472,-0.07218707
 ,0.00791211,0.08498312,0.08695645,-0.22322424,0.12177873,-0.06742002,0
 .00444218,-0.00305760,0.00267008,0.23041222,0.12177877,-0.13762388,0.0
 4777030,0.02327294,-0.01290594,0.00971348,-0.13021035,0.13888492,-0.05
 557191,0.03937614,-0.07218714,0.00911017,-0.00429959,0.00518622,0.0696
 4149,-0.04934365,0.08695645,-0.26448715,-0.09795520,0.07508035,0.00018
 459,0.00059948,-0.00083153,-0.01732241,-0.01070715,0.00707708,0.274532
 22,-0.09795536,-0.09636061,0.03450227,-0.02573106,-0.00864835,0.010039
 44,0.01562339,0.00885865,-0.00716910,0.10473766,0.09476493,0.06188674,
 0.02843856,-0.07218718,-0.00974716,-0.00254438,0.00518622,-0.00827864,
 -0.00573985,0.00518622,-0.07755360,-0.03563948,0.08695645,-0.09643234,
 0.00000019,0.00000013,-0.00065151,0.00070890,-0.00344627,0.00439828,-0
 .00362444,-0.03035222,0.00562630,0.00291550,0.03379848,0.72035959,-0.0
 0000032,-0.09643191,0.00000020,0.00070897,0.00690012,-0.03703741,-0.00
 362444,0.00185038,0.02150327,0.00291555,0.00062245,0.01553414,-0.00000
 006,0.72035937,0.00000031,0.00000010,-0.14840723,0.00031829,0.00341917
 ,-0.02121064,0.00280192,-0.00198525,-0.02121057,-0.00312036,-0.0014339
 6,-0.02121059,-0.00000010,-0.00000005,0.50720285,0.00027545,0.00057952
 ,-0.00021987,0.00037650,0.00005650,0.00017288,-0.00022117,-0.00050397,
 -0.00068362,-0.00009019,0.00064457,0.00077321,-0.06582520,-0.02726398,
 -0.01006323,0.06068265,0.00057961,0.00645211,-0.00236327,0.00005650,0.
 00097830,0.00185910,-0.00005338,0.00065876,0.00054933,0.00019395,0.000
 52756,0.00041349,-0.02726400,-0.35637504,-0.10817190,0.02969044,0.3770
 8831,-0.00312217,-0.03356061,-0.01269713,0.00020966,0.00225196,-0.0065
 7438,-0.00084046,0.00014951,0.00132153,0.00085344,-0.00000785,0.001321
 69,-0.01073053,-0.11534911,-0.09838798,0.01101253,0.11838088,0.1036877
 3,0.00540991,0.00238476,0.00215654,0.00019744,0.00029506,-0.00013392,0
 .00073621,0.00028318,-0.00074470,0.00087678,0.00023234,-0.00169647,-0.
 30734893,-0.11217965,0.09871125,-0.00037291,-0.00041159,-0.00065418,0.
 32369957,0.00238490,0.00131767,0.00099119,0.00074565,0.00024015,-0.000
 86669,-0.00016744,-0.00029884,0.00046287,0.00023234,0.00047802,-0.0007
 7983,-0.11217984,-0.11485135,0.04537096,-0.03235085,-0.01189112,0.0142
 5049,0.12216245,0.11407139,0.03062538,0.01407642,-0.01269714,0.0002907
 5,-0.00080262,0.00132153,-0.00041992,0.00074303,0.00132169,-0.00205509
 ,-0.00094441,-0.00657438,0.10526050,0.04838159,-0.09838798,-0.01366029
 ,-0.00410895,0.00566428,-0.10802712,-0.04965331,0.10368773,0.00440603,
 -0.00296451,-0.00193672,0.00001004,-0.00025181,-0.00002851,0.00077892,
 -0.00028884,0.00152359,0.00068011,-0.00046698,0.00081754,-0.26012629,0
 .13944381,-0.08864799,0.00517499,-0.00279149,0.00327169,-0.02319812,0.
 01917271,-0.01201419,0.27227422,-0.00296427,0.00232157,0.00137201,-0.0
 0070244,0.00042733,-0.00087636,-0.00028884,0.00057588,-0.00107927,-0.0
 0001638,-0.00024252,0.00031737,0.13944375,-0.16207401,0.06280096,0.029
 14777,-0.01743901,0.01388464,-0.01276655,0.01093409,-0.00769178,-0.151
 85289,0.16549674,-0.02750331,0.01948411,-0.01269712,-0.00043352,-0.000
 73517,0.00132169,0.00184543,-0.00130755,-0.00657438,0.00054971,0.00065
 310,0.00132153,-0.09452999,0.06696744,-0.09838797,0.01266837,-0.006558
 70,0.00566428,0.01038860,-0.00977569,0.00566428,0.09701459,-0.06872758
 ,0.10368773\\0.,0.,0.00000027,-0.00000009,-0.00000017,-0.00000011,-0.0
 0000010,0.00000016,-0.00000011,0.00000019,0.,-0.00000011,0.,0.,0.00000
 036,-0.00000002,-0.00000006,-0.00000010,0.00000006,0.,-0.00000010,-0.0
 0000004,0.00000005,-0.00000010\\\@


 THERE'S SMALL CHOICE IN A BOWL OF ROTTEN APPLES.
                     SHAKESPEARE
 Job cpu time:  1 days 12 hours 36 minutes 29.6 seconds.
 File lengths (MBytes):  RWF=    161 Int=      0 D2E=      0 Chk=     13 Scr=      1
 Normal termination of Gaussian 09 at Thu Feb 26 05:16:56 2015.
