 Entering Gaussian System, Link 0=g03
 Input=MA_CAM-b3lyp_AUG-cc-pVDZ.com
 Output=MA_CAM-b3lyp_AUG-cc-pVDZ.log
 Initial command:
 /apps/gaussian/g09_c01/g09/l1.exe /tmp/pbs.8910296.cx1b/Gau-11399.inp -scrdir=/tmp/pbs.8910296.cx1b/
 Entering Link 1 = /apps/gaussian/g09_c01/g09/l1.exe PID=     11401.
  
 Copyright (c) 1988,1990,1992,1993,1995,1998,2003,2009,2011,
            Gaussian, Inc.  All Rights Reserved.
  
 This is part of the Gaussian(R) 09 program.  It is based on
 the Gaussian(R) 03 system (copyright 2003, Gaussian, Inc.),
 the Gaussian(R) 98 system (copyright 1998, Gaussian, Inc.),
 the Gaussian(R) 94 system (copyright 1995, Gaussian, Inc.),
 the Gaussian 92(TM) system (copyright 1992, Gaussian, Inc.),
 the Gaussian 90(TM) system (copyright 1990, Gaussian, Inc.),
 the Gaussian 88(TM) system (copyright 1988, Gaussian, Inc.),
 the Gaussian 86(TM) system (copyright 1986, Carnegie Mellon
 University), and the Gaussian 82(TM) system (copyright 1983,
 Carnegie Mellon University). Gaussian is a federally registered
 trademark of Gaussian, Inc.
  
 This software contains proprietary and confidential information,
 including trade secrets, belonging to Gaussian, Inc.
  
 This software is provided under written license and may be
 used, copied, transmitted, or stored only in accord with that
 written license.
  
 The following legend is applicable only to US Government
 contracts under FAR:
  
                    RESTRICTED RIGHTS LEGEND
  
 Use, reproduction and disclosure by the US Government is
 subject to restrictions as set forth in subparagraphs (a)
 and (c) of the Commercial Computer Software - Restricted
 Rights clause in FAR 52.227-19.
  
 Gaussian, Inc.
 340 Quinnipiac St., Bldg. 40, Wallingford CT 06492
  
  
 ---------------------------------------------------------------
 Warning -- This program may not be used in any manner that
 competes with the business of Gaussian, Inc. or will provide
 assistance to any competitor of Gaussian, Inc.  The licensee
 of this program is prohibited from giving any competitor of
 Gaussian, Inc. access to this program.  By using this program,
 the user acknowledges that Gaussian, Inc. is engaged in the
 business of creating and licensing software in the field of
 computational chemistry and represents and warrants to the
 licensee that it is not a competitor of Gaussian, Inc. and that
 it will not use this program in any manner prohibited above.
 ---------------------------------------------------------------
  

 Cite this work as:
 Gaussian 09, Revision C.01,
 M. J. Frisch, G. W. Trucks, H. B. Schlegel, G. E. Scuseria, 
 M. A. Robb, J. R. Cheeseman, G. Scalmani, V. Barone, B. Mennucci, 
 G. A. Petersson, H. Nakatsuji, M. Caricato, X. Li, H. P. Hratchian, 
 A. F. Izmaylov, J. Bloino, G. Zheng, J. L. Sonnenberg, M. Hada, 
 M. Ehara, K. Toyota, R. Fukuda, J. Hasegawa, M. Ishida, T. Nakajima, 
 Y. Honda, O. Kitao, H. Nakai, T. Vreven, J. A. Montgomery, Jr., 
 J. E. Peralta, F. Ogliaro, M. Bearpark, J. J. Heyd, E. Brothers, 
 K. N. Kudin, V. N. Staroverov, T. Keith, R. Kobayashi, J. Normand, 
 K. Raghavachari, A. Rendell, J. C. Burant, S. S. Iyengar, J. Tomasi, 
 M. Cossi, N. Rega, J. M. Millam, M. Klene, J. E. Knox, J. B. Cross, 
 V. Bakken, C. Adamo, J. Jaramillo, R. Gomperts, R. E. Stratmann, 
 O. Yazyev, A. J. Austin, R. Cammi, C. Pomelli, J. W. Ochterski, 
 R. L. Martin, K. Morokuma, V. G. Zakrzewski, G. A. Voth, 
 P. Salvador, J. J. Dannenberg, S. Dapprich, A. D. Daniels, 
 O. Farkas, J. B. Foresman, J. V. Ortiz, J. Cioslowski, 
 and D. J. Fox, Gaussian, Inc., Wallingford CT, 2010.
 
 ******************************************
 Gaussian 09:  EM64L-G09RevC.01 23-Sep-2011
                26-Feb-2015 
 ******************************************
 %Chk=MA_CAM-b3lyp_AUG-cc-pVDZ.chk
 %Mem=8Gb
 %nproc=8
 Will use up to    8 processors via shared memory.
 ----------------------------------------------------------------------
 #p opt(VeryTight,CalcAll,Raman) Integral(Grid=UltraFine) CAM-b3lyp/AUG
 -cc-pVDZ
 ----------------------------------------------------------------------
 1/7=1,10=4,14=-1,18=20,19=15,26=3,38=1/1,3;
 2/9=110,12=2,17=6,18=5,40=1/2;
 3/5=16,7=10,11=2,16=1,25=1,30=1,71=2,74=-40,75=-5/1,2,3;
 4//1;
 5/5=2,38=5/2;
 8/6=4,10=90,11=11/1;
 10/13=10,15=4/2;
 11/6=3,8=1,9=11,15=111,16=1/1,2,10;
 10/6=1/2;
 6/7=2,8=2,9=2,10=2,18=1,28=1/1;
 7/10=1,25=1/1,2,3,16;
 1/7=1,10=4,14=-1,18=20,19=15/3(3);
 2/9=110/2;
 7/8=1,9=1,25=1,44=-1/16;
 99//99;
 2/9=110/2;
 3/5=16,7=10,11=2,16=1,25=1,30=1,71=2,74=-40,75=-5/1,2,3;
 4/5=5,16=3/1;
 5/5=2,38=5/2;
 8/6=4,10=90,11=11/1;
 10/13=10,15=4/2;
 11/6=3,8=1,9=11,15=111,16=1/1,2,10;
 10/6=1/2;
 7/10=1,25=1/1,2,3,16;
 1/7=1,10=4,14=-1,18=20,19=15/3(-9);
 2/9=110/2;
 6/7=2,8=2,9=2,10=2,18=1,19=2,28=1/1;
 7/8=1,9=1,25=1,44=-1/16;
 99//99;
 Leave Link    1 at Thu Feb 26 00:42:28 2015, MaxMem= 1073741824 cpu:       0.3
 (Enter /apps/gaussian/g09_c01/g09/l101.exe)
 ----------------------------------------------
 Autjob by noodles.sh | Great noodly basis sets
 ----------------------------------------------
 Charge =  1 Multiplicity = 1
 Symbolic Z-Matrix:
 C                     0.        0.       -0.80446 
 H                    -0.09587  -1.03096  -1.1445 
 H                    -0.8449    0.59851  -1.1445 
 H                     0.94078   0.43245  -1.1445 
 N                     0.        0.        0.71256 
 H                     0.08865   0.95193   1.09076 
 H                    -0.86872  -0.39919   1.09076 
 H                     0.78007  -0.55274   1.09076 
 
 NAtoms=      8 NQM=        0 NQMF=       0 NMMI=      8 NMMIF=      0
                NMic=       0 NMicF=      0.
                    Isotopes and Nuclear Properties:
 (Nuclear quadrupole moments (NQMom) in fm**2, nuclear magnetic moments (NMagM)
  in nuclear magnetons)

  Atom         1           2           3           4           5           6           7           8
 IAtWgt=          12           1           1           1          14           1           1           1
 AtmWgt=  12.0000000   1.0078250   1.0078250   1.0078250  14.0030740   1.0078250   1.0078250   1.0078250
 NucSpn=           0           1           1           1           2           1           1           1
 AtZEff=   0.0000000   0.0000000   0.0000000   0.0000000   0.0000000   0.0000000   0.0000000   0.0000000
 NQMom=    0.0000000   0.0000000   0.0000000   0.0000000   2.0440000   0.0000000   0.0000000   0.0000000
 NMagM=    0.0000000   2.7928460   2.7928460   2.7928460   0.4037610   2.7928460   2.7928460   2.7928460
 Leave Link  101 at Thu Feb 26 00:42:28 2015, MaxMem= 1073741824 cpu:       0.9
 (Enter /apps/gaussian/g09_c01/g09/l103.exe)

 GradGradGradGradGradGradGradGradGradGradGradGradGradGradGradGradGradGrad
 Berny optimization.
 Initialization pass.
                           ----------------------------
                           !    Initial Parameters    !
                           ! (Angstroms and Degrees)  !
 --------------------------                            --------------------------
 ! Name  Definition              Value          Derivative Info.                !
 --------------------------------------------------------------------------------
 ! R1    R(1,2)                  1.0898         calculate D2E/DX2 analytically  !
 ! R2    R(1,3)                  1.0898         calculate D2E/DX2 analytically  !
 ! R3    R(1,4)                  1.0898         calculate D2E/DX2 analytically  !
 ! R4    R(1,5)                  1.517          calculate D2E/DX2 analytically  !
 ! R5    R(5,6)                  1.0281         calculate D2E/DX2 analytically  !
 ! R6    R(5,7)                  1.0281         calculate D2E/DX2 analytically  !
 ! R7    R(5,8)                  1.0281         calculate D2E/DX2 analytically  !
 ! A1    A(2,1,3)              110.7303         calculate D2E/DX2 analytically  !
 ! A2    A(2,1,4)              110.7304         calculate D2E/DX2 analytically  !
 ! A3    A(2,1,5)              108.1807         calculate D2E/DX2 analytically  !
 ! A4    A(3,1,4)              110.7303         calculate D2E/DX2 analytically  !
 ! A5    A(3,1,5)              108.1807         calculate D2E/DX2 analytically  !
 ! A6    A(4,1,5)              108.1807         calculate D2E/DX2 analytically  !
 ! A7    A(1,5,6)              111.5829         calculate D2E/DX2 analytically  !
 ! A8    A(1,5,7)              111.583          calculate D2E/DX2 analytically  !
 ! A9    A(1,5,8)              111.583          calculate D2E/DX2 analytically  !
 ! A10   A(6,5,7)              107.2794         calculate D2E/DX2 analytically  !
 ! A11   A(6,5,8)              107.2794         calculate D2E/DX2 analytically  !
 ! A12   A(7,5,8)              107.2794         calculate D2E/DX2 analytically  !
 ! D1    D(2,1,5,6)            179.9926         calculate D2E/DX2 analytically  !
 ! D2    D(2,1,5,7)            -60.0075         calculate D2E/DX2 analytically  !
 ! D3    D(2,1,5,8)             59.9926         calculate D2E/DX2 analytically  !
 ! D4    D(3,1,5,6)            -60.0075         calculate D2E/DX2 analytically  !
 ! D5    D(3,1,5,7)             59.9925         calculate D2E/DX2 analytically  !
 ! D6    D(3,1,5,8)            179.9926         calculate D2E/DX2 analytically  !
 ! D7    D(4,1,5,6)             59.9925         calculate D2E/DX2 analytically  !
 ! D8    D(4,1,5,7)            179.9925         calculate D2E/DX2 analytically  !
 ! D9    D(4,1,5,8)            -60.0075         calculate D2E/DX2 analytically  !
 --------------------------------------------------------------------------------
 Trust Radius=3.00D-01 FncErr=1.00D-07 GrdErr=1.00D-06
 Number of steps in this run=     38 maximum allowed number of steps=    100.
 GradGradGradGradGradGradGradGradGradGradGradGradGradGradGradGradGradGrad

 Leave Link  103 at Thu Feb 26 00:42:29 2015, MaxMem= 1073741824 cpu:       0.0
 (Enter /apps/gaussian/g09_c01/g09/l202.exe)
                          Input orientation:                          
 ---------------------------------------------------------------------
 Center     Atomic      Atomic             Coordinates (Angstroms)
 Number     Number       Type             X           Y           Z
 ---------------------------------------------------------------------
      1          6           0        0.000000    0.000000   -0.804455
      2          1           0       -0.095874   -1.030964   -1.144495
      3          1           0       -0.844904    0.598511   -1.144495
      4          1           0        0.940777    0.432453   -1.144495
      5          7           0        0.000000    0.000000    0.712562
      6          1           0        0.088649    0.951929    1.090759
      7          1           0       -0.868719   -0.399192    1.090759
      8          1           0        0.780070   -0.552736    1.090759
 ---------------------------------------------------------------------
                    Distance matrix (angstroms):
                    1          2          3          4          5
     1  C    0.000000
     2  H    1.089819   0.000000
     3  H    1.089819   1.793386   0.000000
     4  H    1.089818   1.793386   1.793386   0.000000
     5  N    1.517017   2.126203   2.126203   2.126203   0.000000
     6  H    2.122702   2.993706   2.448017   2.447925   1.028134
     7  H    2.122702   2.448017   2.447925   2.993705   1.028134
     8  H    2.122702   2.447926   2.993705   2.448016   1.028134
                    6          7          8
     6  H    0.000000
     7  H    1.655923   0.000000
     8  H    1.655923   1.655923   0.000000
 Stoichiometry    CH6N(1+)
 Framework group  C3[C3(CN),X(H6)]
 Deg. of freedom     6
 Full point group                 C3      NOp   3
 Largest Abelian subgroup         C1      NOp   1
 Largest concise Abelian subgroup C1      NOp   1
                         Standard orientation:                         
 ---------------------------------------------------------------------
 Center     Atomic      Atomic             Coordinates (Angstroms)
 Number     Number       Type             X           Y           Z
 ---------------------------------------------------------------------
      1          6           0        0.000000    0.000000   -0.804455
      2          1           0        1.030964   -0.095874   -1.144495
      3          1           0       -0.598511   -0.844904   -1.144495
      4          1           0       -0.432453    0.940778   -1.144495
      5          7           0        0.000000    0.000000    0.712562
      6          1           0       -0.951929    0.088649    1.090759
      7          1           0        0.399192   -0.868719    1.090759
      8          1           0        0.552737    0.780070    1.090759
 ---------------------------------------------------------------------
 Rotational constants (GHZ):     84.1605103     19.8694623     19.8694623
 Leave Link  202 at Thu Feb 26 00:42:29 2015, MaxMem= 1073741824 cpu:       0.0
 (Enter /apps/gaussian/g09_c01/g09/l301.exe)
 Standard basis: Aug-CC-pVDZ (5D, 7F)
 Ernie: Thresh=  0.10000D-02 Tol=  0.10000D-05 Strict=F.
 Ernie:  4 primitive shells out of 92 were deleted.
 There are   100 symmetry adapted basis functions of A   symmetry.
 Integral buffers will be    131072 words long.
 Raffenetti 2 integral format.
 Two-electron integral symmetry is turned on.
   100 basis functions,   152 primitive gaussians,   104 cartesian basis functions
     9 alpha electrons        9 beta electrons
       nuclear repulsion energy        47.5846100594 Hartrees.
 IExCor=20419 DFT=T Ex+Corr=CAM-B3LYP ExCW=0 ScaHFX=  1.000000
 ScaDFX=  1.000000  1.000000  1.000000  0.810000 ScalE2=  1.000000  1.000000
 IRadAn=      5 IRanWt=     -1 IRanGd=            0 ICorTp=0
  HFx wShort=  0.000000 wLong=  0.330000 cFull=  0.190000 cShort=  0.000000 cLong=  0.460000
  DFx wShort=  0.000000 wLong=  0.330000 cFull=  0.190000 cShort=  0.000000 cLong=  0.460000
 NAtoms=    8 NActive=    8 NUniq=    4 SFac= 4.00D+00 NAtFMM=   60 NAOKFM=F Big=F
 Leave Link  301 at Thu Feb 26 00:42:29 2015, MaxMem= 1073741824 cpu:       0.3
 (Enter /apps/gaussian/g09_c01/g09/l302.exe)
 NPDir=0 NMtPBC=     1 NCelOv=     1 NCel=       1 NClECP=     1 NCelD=      1
         NCelK=      1 NCelE2=     1 NClLst=     1 CellRange=     0.0.
 One-electron integrals computed using PRISM.
 NBasis=   100 RedAO= T  NBF=   100
 NBsUse=   100 1.00D-06 NBFU=   100
 Precomputing XC quadrature grid using
 IXCGrd= 2 IRadAn=           5 IRanWt=          -1 IRanGd=           0 AccXCQ= 0.00D+00.
 NRdTot=     685 NPtTot=      183098 NUsed=      188010 NTot=      188042
 NSgBfM=   104   104   104   104   104 NAtAll=     8     8.
 Leave Link  302 at Thu Feb 26 00:42:29 2015, MaxMem= 1073741824 cpu:       1.2
 (Enter /apps/gaussian/g09_c01/g09/l303.exe)
 DipDrv:  MaxL=1.
 Leave Link  303 at Thu Feb 26 00:42:30 2015, MaxMem= 1073741824 cpu:       0.2
 (Enter /apps/gaussian/g09_c01/g09/l401.exe)
 Harris functional with IExCor=20419 diagonalized for initial guess.
 ExpMin= 2.97D-02 ExpMax= 9.05D+03 ExpMxC= 3.09D+02 IAcc=3 IRadAn=         5 AccDes= 0.00D+00
 HarFok:  IExCor=20419 AccDes= 0.00D+00 IRadAn=         5 IDoV= 1
 ScaDFX=  1.000000  1.000000  1.000000  1.000000
 FoFCou: FMM=F IPFlag=           0 FMFlag=      100000 FMFlg1=           0
         NFxFlg=           0 DoJE=T BraDBF=F KetDBF=T FulRan=T
         Omega=  0.000000  0.000000  1.000000  0.000000  0.000000 ICntrl=     500 IOpCl=  0
         NMat0=    1 NMatS0=    1 NMatT0=    0 NMatD0=    1 NMtDS0=    0 NMtDT0=    0
         I1Cent=           4 NGrid=           0.
 Petite list used in FoFCou.
 Harris En= -92.2130883948783    
 Initial guess orbital symmetries:
       Occupied  (A) (A) (A) (A) (E) (E) (A) (E) (E)
       Virtual   (A) (A) (E) (E) (E) (E) (A) (E) (E) (A) (A) (E)
                 (E) (A) (E) (E) (A) (E) (E) (E) (E) (A) (E) (E)
                 (A) (A) (A) (E) (E) (A) (E) (E) (A) (E) (E) (A)
                 (E) (E) (A) (E) (E) (A) (E) (E) (E) (E) (A) (E)
                 (E) (A) (E) (E) (A) (A) (E) (E) (E) (E) (E) (E)
                 (A) (A) (E) (E) (A) (A) (A) (E) (E) (E) (E) (A)
                 (E) (E) (E) (E) (A) (E) (E) (E) (E) (A) (A) (E)
                 (E) (A) (E) (E) (A) (E) (E)
 The electronic state of the initial guess is 1-A.
 Leave Link  401 at Thu Feb 26 00:42:30 2015, MaxMem= 1073741824 cpu:       2.2
 (Enter /apps/gaussian/g09_c01/g09/l502.exe)
 Closed shell SCF:
 Requested convergence on RMS density matrix=1.00D-08 within 128 cycles.
 Requested convergence on MAX density matrix=1.00D-06.
 Requested convergence on             energy=1.00D-06.
 No special actions if energy rises.
 Using DIIS extrapolation, IDIIS=  1040.
 Integral symmetry usage will be decided dynamically.
       187925 words used for storage of precomputed grid.
 IEnd=      240235 IEndB=      240235 NGot=  1073741824 MDV=  1073529150
 LenX=  1073529150 LenY=  1073517893
 Fock matrices will be formed incrementally for  20 cycles.

 Cycle   1  Pass 1  IDiag  1:
 FoFJK:  IHMeth= 1 ICntrl=     0 DoSepK=T KAlg= 1 I1Cent= 0 FoldK=F
 FoFCou: FMM=F IPFlag=           0 FMFlag=      100000 FMFlg1=           0
         NFxFlg=           0 DoJE=T BraDBF=F KetDBF=F FulRan=T
         Omega=  0.000000  0.000000  1.000000  0.000000  0.000000 ICntrl=     500 IOpCl=  0
         NMat0=    1 NMatS0=    1 NMatT0=    0 NMatD0=    1 NMtDS0=    0 NMtDT0=    0
         I1Cent=           0 NGrid=           0.
 Petite list used in FoFCou.
 E= -96.1330281388289    
 DIIS: error= 2.20D-02 at cycle   1 NSaved=   1.
 NSaved= 1 IEnMin= 1 EnMin= -96.1330281388289     IErMin= 1 ErrMin= 2.20D-02
 ErrMax= 2.20D-02 EMaxC= 1.00D-01 BMatC= 4.47D-02 BMatP= 4.47D-02
 IDIUse=3 WtCom= 7.80D-01 WtEn= 2.20D-01
 Coeff-Com:  0.100D+01
 Coeff-En:   0.100D+01
 Coeff:      0.100D+01
 Gap=     0.552 Goal=   None    Shift=    0.000
 DSYEVD returned Info=         201 IAlg= 4 N=   100 NDim=   100 NE2=    10735177 trying DSYEV.
 GapD=    0.552 DampG=2.000 DampE=0.500 DampFc=1.0000 IDamp=-1.
 RMSDP=5.12D-03 MaxDP=1.26D-01              OVMax= 1.14D-01

 Cycle   2  Pass 1  IDiag  1:
 RMSU=  3.15D-03    CP:  8.99D-01
 FoFJK:  IHMeth= 1 ICntrl=     0 DoSepK=T KAlg= 1 I1Cent= 0 FoldK=F
 E= -96.1452071711461     Delta-E=       -0.012179032317 Rises=F Damp=F
 DIIS: error= 2.00D-02 at cycle   2 NSaved=   2.
 NSaved= 2 IEnMin= 2 EnMin= -96.1452071711461     IErMin= 2 ErrMin= 2.00D-02
 ErrMax= 2.00D-02 EMaxC= 1.00D-01 BMatC= 2.89D-02 BMatP= 4.47D-02
 IDIUse=3 WtCom= 8.00D-01 WtEn= 2.00D-01
 Coeff-Com:  0.435D+00 0.565D+00
 Coeff-En:   0.362D+00 0.638D+00
 Coeff:      0.420D+00 0.580D+00
 Gap=     0.515 Goal=   None    Shift=    0.000
 DSYEVD returned Info=         201 IAlg= 4 N=   100 NDim=   100 NE2=    10735177 trying DSYEV.
 RMSDP=1.15D-03 MaxDP=4.55D-02 DE=-1.22D-02 OVMax= 5.00D-02

 Cycle   3  Pass 1  IDiag  1:
 RMSU=  7.25D-04    CP:  8.97D-01  8.83D-01
 FoFJK:  IHMeth= 1 ICntrl=     0 DoSepK=T KAlg= 1 I1Cent= 0 FoldK=F
 E= -96.1672101194638     Delta-E=       -0.022002948318 Rises=F Damp=F
 DIIS: error= 4.39D-03 at cycle   3 NSaved=   3.
 NSaved= 3 IEnMin= 3 EnMin= -96.1672101194638     IErMin= 3 ErrMin= 4.39D-03
 ErrMax= 4.39D-03 EMaxC= 1.00D-01 BMatC= 1.27D-03 BMatP= 2.89D-02
 IDIUse=3 WtCom= 9.56D-01 WtEn= 4.39D-02
 Coeff-Com: -0.610D-02 0.167D+00 0.840D+00
 Coeff-En:   0.000D+00 0.000D+00 0.100D+01
 Coeff:     -0.583D-02 0.159D+00 0.847D+00
 Gap=     0.513 Goal=   None    Shift=    0.000
 RMSDP=3.82D-04 MaxDP=9.52D-03 DE=-2.20D-02 OVMax= 9.38D-03

 Cycle   4  Pass 1  IDiag  1:
 RMSU=  1.36D-04    CP:  8.91D-01  9.45D-01  9.19D-01
 FoFJK:  IHMeth= 1 ICntrl=     0 DoSepK=T KAlg= 1 I1Cent= 0 FoldK=F
 E= -96.1682097101825     Delta-E=       -0.000999590719 Rises=F Damp=F
 DIIS: error= 2.09D-04 at cycle   4 NSaved=   4.
 NSaved= 4 IEnMin= 4 EnMin= -96.1682097101825     IErMin= 4 ErrMin= 2.09D-04
 ErrMax= 2.09D-04 EMaxC= 1.00D-01 BMatC= 6.71D-06 BMatP= 1.27D-03
 IDIUse=3 WtCom= 9.98D-01 WtEn= 2.09D-03
 Coeff-Com: -0.447D-02 0.122D-01 0.119D+00 0.873D+00
 Coeff-En:   0.000D+00 0.000D+00 0.000D+00 0.100D+01
 Coeff:     -0.446D-02 0.121D-01 0.119D+00 0.873D+00
 Gap=     0.511 Goal=   None    Shift=    0.000
 DSYEVD returned Info=         201 IAlg= 4 N=   100 NDim=   100 NE2=    10735177 trying DSYEV.
 RMSDP=4.33D-05 MaxDP=7.25D-04 DE=-1.00D-03 OVMax= 8.97D-04

 Cycle   5  Pass 1  IDiag  1:
 RMSU=  1.76D-05    CP:  8.90D-01  9.50D-01  9.38D-01  1.04D+00
 FoFJK:  IHMeth= 1 ICntrl=     0 DoSepK=T KAlg= 1 I1Cent= 0 FoldK=F
 E= -96.1682159691779     Delta-E=       -0.000006258995 Rises=F Damp=F
 DIIS: error= 5.77D-05 at cycle   5 NSaved=   5.
 NSaved= 5 IEnMin= 5 EnMin= -96.1682159691779     IErMin= 5 ErrMin= 5.77D-05
 ErrMax= 5.77D-05 EMaxC= 1.00D-01 BMatC= 3.30D-07 BMatP= 6.71D-06
 IDIUse=1 WtCom= 1.00D+00 WtEn= 0.00D+00
 Coeff-Com: -0.628D-03-0.318D-02-0.460D-02 0.149D+00 0.860D+00
 Coeff:     -0.628D-03-0.318D-02-0.460D-02 0.149D+00 0.860D+00
 Gap=     0.512 Goal=   None    Shift=    0.000
 DSYEVD returned Info=         201 IAlg= 4 N=   100 NDim=   100 NE2=    10735177 trying DSYEV.
 RMSDP=9.25D-06 MaxDP=2.29D-04 DE=-6.26D-06 OVMax= 2.59D-04

 Cycle   6  Pass 1  IDiag  1:
 RMSU=  4.96D-06    CP:  8.90D-01  9.50D-01  9.41D-01  1.06D+00  9.97D-01
 FoFJK:  IHMeth= 1 ICntrl=     0 DoSepK=T KAlg= 1 I1Cent= 0 FoldK=F
 E= -96.1682162986685     Delta-E=       -0.000000329491 Rises=F Damp=F
 DIIS: error= 2.48D-05 at cycle   6 NSaved=   6.
 NSaved= 6 IEnMin= 6 EnMin= -96.1682162986685     IErMin= 6 ErrMin= 2.48D-05
 ErrMax= 2.48D-05 EMaxC= 1.00D-01 BMatC= 6.24D-08 BMatP= 3.30D-07
 IDIUse=1 WtCom= 1.00D+00 WtEn= 0.00D+00
 Coeff-Com:  0.193D-03-0.238D-02-0.125D-01-0.208D-01 0.308D+00 0.728D+00
 Coeff:      0.193D-03-0.238D-02-0.125D-01-0.208D-01 0.308D+00 0.728D+00
 Gap=     0.512 Goal=   None    Shift=    0.000
 DSYEVD returned Info=         201 IAlg= 4 N=   100 NDim=   100 NE2=    10735177 trying DSYEV.
 RMSDP=3.13D-06 MaxDP=6.28D-05 DE=-3.29D-07 OVMax= 7.90D-05

 Cycle   7  Pass 1  IDiag  1:
 RMSU=  1.04D-06    CP:  8.90D-01  9.51D-01  9.41D-01  1.06D+00  1.06D+00
                    CP:  8.36D-01
 FoFJK:  IHMeth= 1 ICntrl=     0 DoSepK=T KAlg= 1 I1Cent= 0 FoldK=F
 E= -96.1682163650181     Delta-E=       -0.000000066350 Rises=F Damp=F
 DIIS: error= 3.18D-06 at cycle   7 NSaved=   7.
 NSaved= 7 IEnMin= 7 EnMin= -96.1682163650181     IErMin= 7 ErrMin= 3.18D-06
 ErrMax= 3.18D-06 EMaxC= 1.00D-01 BMatC= 6.78D-10 BMatP= 6.24D-08
 IDIUse=1 WtCom= 1.00D+00 WtEn= 0.00D+00
 Coeff-Com:  0.358D-04-0.178D-03-0.114D-02-0.540D-02 0.210D-02 0.895D-01
 Coeff-Com:  0.915D+00
 Coeff:      0.358D-04-0.178D-03-0.114D-02-0.540D-02 0.210D-02 0.895D-01
 Coeff:      0.915D+00
 Gap=     0.512 Goal=   None    Shift=    0.000
 DSYEVD returned Info=         201 IAlg= 4 N=   100 NDim=   100 NE2=    10735177 trying DSYEV.
 RMSDP=4.00D-07 MaxDP=6.13D-06 DE=-6.63D-08 OVMax= 8.74D-06

 Cycle   8  Pass 1  IDiag  1:
 RMSU=  1.88D-07    CP:  8.90D-01  9.51D-01  9.41D-01  1.06D+00  1.06D+00
                    CP:  8.63D-01  1.06D+00
 FoFJK:  IHMeth= 1 ICntrl=     0 DoSepK=T KAlg= 1 I1Cent= 0 FoldK=F
 E= -96.1682163659123     Delta-E=       -0.000000000894 Rises=F Damp=F
 DIIS: error= 3.49D-07 at cycle   8 NSaved=   8.
 NSaved= 8 IEnMin= 8 EnMin= -96.1682163659123     IErMin= 8 ErrMin= 3.49D-07
 ErrMax= 3.49D-07 EMaxC= 1.00D-01 BMatC= 1.40D-11 BMatP= 6.78D-10
 IDIUse=1 WtCom= 1.00D+00 WtEn= 0.00D+00
 Coeff-Com: -0.569D-05 0.890D-04 0.456D-03 0.727D-03-0.140D-01-0.274D-01
 Coeff-Com:  0.116D-01 0.103D+01
 Coeff:     -0.569D-05 0.890D-04 0.456D-03 0.727D-03-0.140D-01-0.274D-01
 Coeff:      0.116D-01 0.103D+01
 Gap=     0.512 Goal=   None    Shift=    0.000
 DSYEVD returned Info=         201 IAlg= 4 N=   100 NDim=   100 NE2=    10735177 trying DSYEV.
 RMSDP=7.73D-08 MaxDP=1.43D-06 DE=-8.94D-10 OVMax= 2.78D-06

 Cycle   9  Pass 1  IDiag  1:
 RMSU=  2.42D-08    CP:  8.90D-01  9.51D-01  9.41D-01  1.06D+00  1.06D+00
                    CP:  8.67D-01  1.10D+00  1.12D+00
 FoFJK:  IHMeth= 1 ICntrl=     0 DoSepK=T KAlg= 1 I1Cent= 0 FoldK=F
 E= -96.1682163659403     Delta-E=       -0.000000000028 Rises=F Damp=F
 DIIS: error= 3.71D-08 at cycle   9 NSaved=   9.
 NSaved= 9 IEnMin= 9 EnMin= -96.1682163659403     IErMin= 9 ErrMin= 3.71D-08
 ErrMax= 3.71D-08 EMaxC= 1.00D-01 BMatC= 6.59D-14 BMatP= 1.40D-11
 IDIUse=1 WtCom= 1.00D+00 WtEn= 0.00D+00
 Coeff-Com: -0.172D-06-0.189D-05-0.502D-05 0.195D-04 0.695D-03 0.115D-03
 Coeff-Com: -0.841D-02-0.515D-01 0.106D+01
 Coeff:     -0.172D-06-0.189D-05-0.502D-05 0.195D-04 0.695D-03 0.115D-03
 Coeff:     -0.841D-02-0.515D-01 0.106D+01
 Gap=     0.512 Goal=   None    Shift=    0.000
 DSYEVD returned Info=         201 IAlg= 4 N=   100 NDim=   100 NE2=    10735177 trying DSYEV.
 RMSDP=9.84D-09 MaxDP=2.08D-07 DE=-2.80D-11 OVMax= 1.99D-07

 SCF Done:  E(RCAM-B3LYP) =  -96.1682163659     A.U. after    9 cycles
             Convg  =    0.9840D-08             -V/T =  2.0078
 KE= 9.542797623520D+01 PE=-3.129689801625D+02 EE= 7.378817750199D+01
 Leave Link  502 at Thu Feb 26 00:42:35 2015, MaxMem= 1073741824 cpu:      35.3
 (Enter /apps/gaussian/g09_c01/g09/l801.exe)
 Range of M.O.s used for correlation:     1   100
 NBasis=   100 NAE=     9 NBE=     9 NFC=     0 NFV=     0
 NROrb=    100 NOA=     9 NOB=     9 NVA=    91 NVB=    91

 **** Warning!!: The largest alpha MO coefficient is  0.19586896D+02

 Leave Link  801 at Thu Feb 26 00:42:35 2015, MaxMem= 1073741824 cpu:       0.1
 (Enter /apps/gaussian/g09_c01/g09/l1002.exe)
 Minotr:  Closed shell wavefunction.
          Direct CPHF calculation.
          Differentiating once with respect to electric field.
                with respect to dipole field.
          Electric field/nuclear overlap derivatives assumed to be zero.
          Using symmetry in CPHF.
          Requested convergence is 1.0D-08 RMS, and 1.0D-07 maximum.
          Secondary convergence is 1.0D-12 RMS, and 1.0D-12 maximum.
          NewPWx=F KeepS1=T KeepF1=T KeepIn=T MapXYZ=F SortEE=F KeepMc=T.
          MDV=    1073741756 using IRadAn=       1.
 Generate precomputed XC quadrature information.
          Solving linear equations simultaneously, MaxMat=       0.
          There are     3 degrees of freedom in the 1st order CPHF.  IDoFFX=0.
      3 vectors produced by pass  0 Test12= 2.73D-14 3.33D-08 XBig12= 7.49D+00 1.07D+00.
 AX will form     3 AO Fock derivatives at one time.
 FoFJK:  IHMeth= 1 ICntrl=     0 DoSepK=T KAlg= 1 I1Cent= 0 FoldK=F
 FoFCou: FMM=F IPFlag=           0 FMFlag=      100000 FMFlg1=           0
         NFxFlg=           0 DoJE=T BraDBF=F KetDBF=F FulRan=T
         Omega=  0.000000  0.000000  1.000000  0.000000  0.000000 ICntrl=     500 IOpCl=  0
         NMat0=    3 NMatS0=    3 NMatT0=    0 NMatD0=    3 NMtDS0=    0 NMtDT0=    0
         I1Cent=           0 NGrid=           0.
 Symmetry not used in FoFCou.
      3 vectors produced by pass  1 Test12= 2.73D-14 3.33D-08 XBig12= 3.46D-01 2.44D-01.
 FoFJK:  IHMeth= 1 ICntrl=     0 DoSepK=T KAlg= 1 I1Cent= 0 FoldK=F
      3 vectors produced by pass  2 Test12= 2.73D-14 3.33D-08 XBig12= 6.23D-02 6.19D-02.
 FoFJK:  IHMeth= 1 ICntrl=     0 DoSepK=T KAlg= 1 I1Cent= 0 FoldK=F
      3 vectors produced by pass  3 Test12= 2.73D-14 3.33D-08 XBig12= 3.07D-03 1.28D-02.
 FoFJK:  IHMeth= 1 ICntrl=     0 DoSepK=T KAlg= 1 I1Cent= 0 FoldK=F
      3 vectors produced by pass  4 Test12= 2.73D-14 3.33D-08 XBig12= 6.82D-04 4.90D-03.
 FoFJK:  IHMeth= 1 ICntrl=     0 DoSepK=T KAlg= 1 I1Cent= 0 FoldK=F
      3 vectors produced by pass  5 Test12= 2.73D-14 3.33D-08 XBig12= 1.53D-05 1.01D-03.
 FoFJK:  IHMeth= 1 ICntrl=     0 DoSepK=T KAlg= 1 I1Cent= 0 FoldK=F
      3 vectors produced by pass  6 Test12= 2.73D-14 3.33D-08 XBig12= 3.98D-07 1.38D-04.
 FoFJK:  IHMeth= 1 ICntrl=     0 DoSepK=T KAlg= 1 I1Cent= 0 FoldK=F
      3 vectors produced by pass  7 Test12= 2.73D-14 3.33D-08 XBig12= 9.14D-09 2.34D-05.
 FoFJK:  IHMeth= 1 ICntrl=     0 DoSepK=T KAlg= 1 I1Cent= 0 FoldK=F
      1 vectors produced by pass  8 Test12= 2.73D-14 3.33D-08 XBig12= 6.33D-11 1.59D-06.
 FoFJK:  IHMeth= 1 ICntrl=     0 DoSepK=T KAlg= 1 I1Cent= 0 FoldK=F
      1 vectors produced by pass  9 Test12= 2.73D-14 3.33D-08 XBig12= 2.99D-13 1.57D-07.
 FoFJK:  IHMeth= 1 ICntrl=     0 DoSepK=T KAlg= 1 I1Cent= 0 FoldK=F
 Inverted reduced A of dimension    26 with in-core refinement.
 End of Minotr Frequency-dependent properties file   721 does not exist.
 End of Minotr Frequency-dependent properties file   722 does not exist.
 Leave Link 1002 at Thu Feb 26 00:42:44 2015, MaxMem= 1073741824 cpu:      69.5
 (Enter /apps/gaussian/g09_c01/g09/l1101.exe)
 Using compressed storage, NAtomX=     8.
 Will process   9 centers per pass.
 Leave Link 1101 at Thu Feb 26 00:42:44 2015, MaxMem= 1073741824 cpu:       1.1
 (Enter /apps/gaussian/g09_c01/g09/l1102.exe)
 Symmetrizing basis deriv contribution to polar:
 IMax=3 JMax=2 DiffMx= 0.00D+00
 Leave Link 1102 at Thu Feb 26 00:42:45 2015, MaxMem= 1073741824 cpu:       0.2
 (Enter /apps/gaussian/g09_c01/g09/l1110.exe)
 Forming Gx(P) for the SCF density, NAtomX=     8.
 Integral derivatives from FoFDir/FoFCou, PRISM(SPDF).
 Do as many integral derivatives as possible in FoFDir.
 G2DrvN: MDV=    1073741656.
 G2DrvN: will do     9 centers at a time, making    1 passes doing MaxLOS=2.
 Calling FoFCou, ICntrl=  3107 FMM=F I1Cent=   0 AccDes= 0.00D+00.
 FoFJK:  IHMeth= 1 ICntrl=  3107 DoSepK=T KAlg= 1 I1Cent= 0 FoldK=F
 FoFCou: FMM=F IPFlag=           0 FMFlag=      100000 FMFlg1=           0
         NFxFlg=           0 DoJE=F BraDBF=F KetDBF=F FulRan=T
         Omega=  0.000000  0.000000  1.000000  0.000000  0.000000 ICntrl=    3507 IOpCl=  0
         NMat0=    1 NMatS0=    1 NMatT0=    0 NMatD0=    4 NMtDS0=    3 NMtDT0=    0
         I1Cent=           0 NGrid=           0.
 Petite list used in FoFCou.
 FoFDir/FoFCou used for L=0 through L=2.
 End of G2Drv Frequency-dependent properties file   721 does not exist.
 End of G2Drv Frequency-dependent properties file   722 does not exist.
 Leave Link 1110 at Thu Feb 26 00:42:53 2015, MaxMem= 1073741824 cpu:      60.6
 (Enter /apps/gaussian/g09_c01/g09/l1002.exe)
 Minotr:  Closed shell wavefunction.
          IDoAtm=11111111
          Direct CPHF calculation.
          Differentiating once with respect to electric field.
                with respect to dipole field.
          Differentiating once with respect to nuclear coordinates.
          Using symmetry in CPHF.
          Requested convergence is 1.0D-08 RMS, and 1.0D-07 maximum.
          Secondary convergence is 1.0D-12 RMS, and 1.0D-12 maximum.
          NewPWx=T KeepS1=F KeepF1=F KeepIn=T MapXYZ=F SortEE=F KeepMc=T.
          MDV=    1073741740 using IRadAn=       1.
 Generate precomputed XC quadrature information.
          Solving linear equations simultaneously, MaxMat=       0.
 FoFJK:  IHMeth= 1 ICntrl=     0 DoSepK=T KAlg= 1 I1Cent= 0 FoldK=F
 FoFCou: FMM=F IPFlag=           0 FMFlag=      100000 FMFlg1=           0
         NFxFlg=           0 DoJE=F BraDBF=F KetDBF=F FulRan=T
         Omega=  0.000000  0.000000  1.000000  0.000000  0.000000 ICntrl=     500 IOpCl=  0
         NMat0=   15 NMatS0=   15 NMatT0=    0 NMatD0=   15 NMtDS0=    0 NMtDT0=    0
         I1Cent=           0 NGrid=           0.
 Integrals replicated using symmetry in FoFCou.
          There are    15 degrees of freedom in the 1st order CPHF.  IDoFFX=4.
 Will reuse    3 saved solutions.
     12 vectors produced by pass  0 Test12= 5.46D-15 6.67D-09 XBig12= 6.50D-02 7.13D-02.
 AX will form    12 AO Fock derivatives at one time.
 FoFJK:  IHMeth= 1 ICntrl=     0 DoSepK=T KAlg= 1 I1Cent= 0 FoldK=F
     12 vectors produced by pass  1 Test12= 5.46D-15 6.67D-09 XBig12= 6.05D-03 2.53D-02.
 FoFJK:  IHMeth= 1 ICntrl=     0 DoSepK=T KAlg= 1 I1Cent= 0 FoldK=F
     12 vectors produced by pass  2 Test12= 5.46D-15 6.67D-09 XBig12= 3.68D-04 6.52D-03.
 FoFJK:  IHMeth= 1 ICntrl=     0 DoSepK=T KAlg= 1 I1Cent= 0 FoldK=F
     12 vectors produced by pass  3 Test12= 5.46D-15 6.67D-09 XBig12= 5.18D-06 3.47D-04.
 FoFJK:  IHMeth= 1 ICntrl=     0 DoSepK=T KAlg= 1 I1Cent= 0 FoldK=F
     12 vectors produced by pass  4 Test12= 5.46D-15 6.67D-09 XBig12= 2.33D-08 4.17D-05.
 FoFJK:  IHMeth= 1 ICntrl=     0 DoSepK=T KAlg= 1 I1Cent= 0 FoldK=F
     12 vectors produced by pass  5 Test12= 5.46D-15 6.67D-09 XBig12= 8.19D-11 1.60D-06.
 FoFJK:  IHMeth= 1 ICntrl=     0 DoSepK=T KAlg= 1 I1Cent= 0 FoldK=F
      7 vectors produced by pass  6 Test12= 5.46D-15 6.67D-09 XBig12= 2.62D-13 1.26D-07.
 FoFJK:  IHMeth= 1 ICntrl=     0 DoSepK=T KAlg= 1 I1Cent= 0 FoldK=F
 Inverted reduced A of dimension    79 with in-core refinement.
 FullF1:  Do perturbations    1 to    15.
 FoFJK:  IHMeth= 1 ICntrl=     0 DoSepK=T KAlg= 1 I1Cent= 0 FoldK=F
 Isotropic polarizability for W=    0.000000       20.44 Bohr**3.
 FoFJK:  IHMeth= 1 ICntrl=     0 DoSepK=T KAlg= 1 I1Cent= 0 FoldK=F
 FullF1:  Do perturbations    1 to     6.
 FoFJK:  IHMeth= 1 ICntrl=     0 DoSepK=T KAlg= 1 I1Cent= 0 FoldK=F
 End of Minotr Frequency-dependent properties file   721 does not exist.
 End of Minotr Frequency-dependent properties file   722 does not exist.
 Leave Link 1002 at Thu Feb 26 00:43:06 2015, MaxMem= 1073741824 cpu:     104.7
 (Enter /apps/gaussian/g09_c01/g09/l601.exe)
 Copying SCF densities to generalized density rwf, IOpCl= 0 IROHF=0.

 **********************************************************************

            Population analysis using the SCF density.

 **********************************************************************

 Orbital symmetries:
       Occupied  (A) (A) (A) (A) (E) (E) (A) (E) (E)
       Virtual   (A) (A) (E) (E) (E) (E) (A) (E) (E) (A) (A) (E)
                 (E) (E) (E) (A) (E) (E) (A) (E) (E) (A) (A) (E)
                 (E) (A) (A) (E) (E) (E) (E) (A) (A) (E) (E) (A)
                 (E) (E) (A) (E) (E) (A) (E) (E) (E) (E) (A) (E)
                 (E) (E) (E) (A) (A) (A) (E) (E) (E) (E) (E) (E)
                 (A) (A) (A) (E) (E) (A) (E) (E) (A) (E) (E) (A)
                 (E) (E) (E) (E) (E) (E) (A) (E) (E) (A) (A) (E)
                 (E) (A) (E) (E) (A) (E) (E)
 The electronic state is 1-A.
 Alpha  occ. eigenvalues --  -14.75350 -10.52371  -1.30390  -1.01487  -0.87438
 Alpha  occ. eigenvalues --   -0.87438  -0.77340  -0.69291  -0.69291
 Alpha virt. eigenvalues --   -0.18121  -0.12116  -0.11985  -0.11985  -0.07589
 Alpha virt. eigenvalues --   -0.07589  -0.07158  -0.04188  -0.04188  -0.03154
 Alpha virt. eigenvalues --   -0.02359  -0.01145  -0.01145   0.00781   0.00781
 Alpha virt. eigenvalues --    0.01031   0.03519   0.03519   0.04506   0.11283
 Alpha virt. eigenvalues --    0.11283   0.13801   0.19122   0.19248   0.19248
 Alpha virt. eigenvalues --    0.20890   0.20917   0.24460   0.24460   0.29303
 Alpha virt. eigenvalues --    0.29303   0.29421   0.31694   0.32185   0.32185
 Alpha virt. eigenvalues --    0.32479   0.34286   0.34286   0.37034   0.40714
 Alpha virt. eigenvalues --    0.40714   0.46631   0.47220   0.47220   0.53971
 Alpha virt. eigenvalues --    0.53971   0.63644   0.67091   0.67091   0.69237
 Alpha virt. eigenvalues --    0.69237   0.70821   0.77246   0.90246   0.92833
 Alpha virt. eigenvalues --    0.92833   1.15918   1.15918   1.33137   1.33137
 Alpha virt. eigenvalues --    1.40648   1.45480   1.47498   1.50063   1.50063
 Alpha virt. eigenvalues --    1.51675   1.63556   1.63556   1.66370   1.78323
 Alpha virt. eigenvalues --    1.78323   1.82230   1.85039   1.85039   1.95724
 Alpha virt. eigenvalues --    1.95724   2.00259   2.00259   2.00291   2.22564
 Alpha virt. eigenvalues --    2.22564   2.26730   2.33562   2.36649   2.36649
 Alpha virt. eigenvalues --    2.40507   2.55657   2.55657   2.63901   2.98274
 Alpha virt. eigenvalues --    2.98274
          Condensed to atoms (all electrons):
              1          2          3          4          5          6
     1  C    3.891941   0.321075   0.321075   0.321075   0.184783  -0.050653
     2  H    0.321075   1.505978  -0.268885  -0.268885  -0.079636   0.039326
     3  H    0.321075  -0.268885   1.505978  -0.268885  -0.079636  -0.027047
     4  H    0.321075  -0.268885  -0.268885   1.505978  -0.079636  -0.027050
     5  N    0.184783  -0.079636  -0.079636  -0.079636   5.831779   0.360196
     6  H   -0.050653   0.039326  -0.027047  -0.027050   0.360196   0.793355
     7  H   -0.050653  -0.027047  -0.027050   0.039326   0.360196  -0.099207
     8  H   -0.050653  -0.027050   0.039326  -0.027047   0.360196  -0.099207
              7          8
     1  C   -0.050653  -0.050653
     2  H   -0.027047  -0.027050
     3  H   -0.027050   0.039326
     4  H    0.039326  -0.027047
     5  N    0.360196   0.360196
     6  H   -0.099207  -0.099207
     7  H    0.793355  -0.099207
     8  H   -0.099207   0.793355
 Mulliken atomic charges:
              1
     1  C    1.112010
     2  H   -0.194877
     3  H   -0.194877
     4  H   -0.194877
     5  N    0.141758
     6  H    0.110288
     7  H    0.110288
     8  H    0.110288
 Sum of Mulliken atomic charges =   1.00000
 Mulliken charges with hydrogens summed into heavy atoms:
              1
     1  C    0.527379
     5  N    0.472621
 Sum of Mulliken charges with hydrogens summed into heavy atoms =   1.00000
 APT atomic charges:
              1
     1  C    0.242018
     2  H    0.072395
     3  H    0.072395
     4  H    0.072396
     5  N   -0.246615
     6  H    0.262470
     7  H    0.262470
     8  H    0.262470
 Sum of APT charges=   1.00000
 APT Atomic charges with hydrogens summed into heavy atoms:
              1
     1  C    0.459204
     2  H    0.000000
     3  H    0.000000
     4  H    0.000000
     5  N    0.540795
     6  H    0.000000
     7  H    0.000000
     8  H    0.000000
 Sum of APT charges=   1.00000
 Electronic spatial extent (au):  <R**2>=             94.9356
 Charge=              1.0000 electrons
 Dipole moment (field-independent basis, Debye):
    X=              0.0000    Y=              0.0000    Z=              2.1777  Tot=              2.1777
 Quadrupole moment (field-independent basis, Debye-Ang):
   XX=            -10.2701   YY=            -10.2701   ZZ=             -6.7919
   XY=              0.0000   XZ=              0.0000   YZ=              0.0000
 Traceless Quadrupole moment (field-independent basis, Debye-Ang):
   XX=             -1.1594   YY=             -1.1594   ZZ=              2.3188
   XY=              0.0000   XZ=              0.0000   YZ=              0.0000
 Octapole moment (field-independent basis, Debye-Ang**2):
  XXX=             -0.3736  YYY=             -0.1073  ZZZ=              5.7776  XYY=              0.3736
  XXY=              0.1073  XXZ=              2.6137  XZZ=              0.0000  YZZ=              0.0000
  YYZ=              2.6137  XYZ=              0.0000
 Hexadecapole moment (field-independent basis, Debye-Ang**3):
 XXXX=            -18.5416 YYYY=            -18.5416 ZZZZ=            -63.3311 XXXY=              0.0000
 XXXZ=             -2.7756 YYYX=              0.0000 YYYZ=             -0.7933 ZZZX=              0.0000
 ZZZY=              0.0000 XXYY=             -6.1805 XXZZ=            -11.0473 YYZZ=            -11.0473
 XXYZ=              0.7933 YYXZ=              2.7756 ZZXY=              0.0000
 N-N= 4.758461005939D+01 E-N=-3.129689789737D+02  KE= 9.542797623520D+01
  Exact polarizability:  19.413   0.000  19.413   0.000   0.000  22.486
 Approx polarizability:  21.979   0.000  21.979   0.000   0.000  22.995
 No NMR shielding tensors so no spin-rotation constants.
 Leave Link  601 at Thu Feb 26 00:43:06 2015, MaxMem= 1073741824 cpu:       1.1
 (Enter /apps/gaussian/g09_c01/g09/l701.exe)
 Compute integral second derivatives.
 ... and contract with generalized density number  0.
 Leave Link  701 at Thu Feb 26 00:43:07 2015, MaxMem= 1073741824 cpu:       1.3
 (Enter /apps/gaussian/g09_c01/g09/l702.exe)
 L702 exits ... SP integral derivatives will be done elsewhere.
 Leave Link  702 at Thu Feb 26 00:43:07 2015, MaxMem= 1073741824 cpu:       0.1
 (Enter /apps/gaussian/g09_c01/g09/l703.exe)
 Compute integral second derivatives, UseDBF=F ICtDFT=           0.
 Integral derivatives from FoFDir, PRISM(SPDF).
 Calling FoFJK, ICntrl=    100127 FMM=F ISym2X=1 I1Cent= 0 IOpClX= 0 NMat=1 NMatS=1 NMatT=0.
 FoFJK:  IHMeth= 1 ICntrl=100127 DoSepK=T KAlg= 1 I1Cent= 0 FoldK=F
 FoFCou: FMM=F IPFlag=           0 FMFlag=      100000 FMFlg1=         800
         NFxFlg=           0 DoJE=F BraDBF=F KetDBF=F FulRan=T
         Omega=  0.000000  0.000000  1.000000  0.000000  0.000000 ICntrl=  100527 IOpCl=  0
         NMat0=    1 NMatS0=    1 NMatT0=    0 NMatD0=    1 NMtDS0=    0 NMtDT0=    0
         I1Cent=           0 NGrid=           0.
 Petite list used in FoFCou.
 Leave Link  703 at Thu Feb 26 00:43:14 2015, MaxMem= 1073741824 cpu:      55.9
 (Enter /apps/gaussian/g09_c01/g09/l716.exe)
 Dipole        = 5.77662918D-16-3.55184632D-16 8.56769877D-01
 Polarizability= 1.94125216D+01-1.06425474D-06 1.94125317D+01
                 5.71280658D-06 2.53866982D-05 2.24855878D+01
 HyperPolar    = 1.58534090D+00-4.53200482D-01-1.58550653D+00
                 4.46084322D-01-2.99450898D+00-1.47470043D-03
                -2.99496922D+00-9.04349086D-04-1.69577911D-03
                 4.02460146D+00
 ***** Axes restored to original set *****
 -------------------------------------------------------------------
 Center     Atomic                   Forces (Hartrees/Bohr)
 Number     Number              X              Y              Z
 -------------------------------------------------------------------
      1        6           0.000000000    0.000000000    0.007267630
      2        1          -0.000183159   -0.001966045   -0.000293904
      3        1          -0.001611066    0.001141643   -0.000293904
      4        1           0.001794225    0.000824402   -0.000293904
      5        7           0.000000000    0.000000000   -0.002904275
      6        1          -0.000182980   -0.001959478   -0.001160547
      7        1           0.001788448    0.000821273   -0.001160547
      8        1          -0.001605467    0.001138204   -0.001160547
 -------------------------------------------------------------------
 Cartesian Forces:  Max     0.007267630 RMS     0.001924283
 Force constants in Cartesian coordinates: 
                1             2             3             4             5 
      1  0.646512D+00
      2  0.000000D+00  0.646512D+00
      3  0.000000D+00  0.000000D+00  0.405605D+00
      4 -0.515409D-01 -0.253372D-01 -0.818224D-02  0.469304D-01
      5 -0.253368D-01 -0.321637D+00 -0.879533D-01  0.268197D-01  0.332832D+00
      6 -0.673644D-02 -0.724045D-01 -0.716245D-01  0.832018D-02  0.894308D-01
      7 -0.232170D+00  0.129624D+00 -0.720787D-01  0.447760D-02 -0.355585D-02
      8  0.129623D+00 -0.141008D+00  0.510627D-01  0.225651D-01 -0.118304D-01
      9 -0.593358D-01  0.420360D-01 -0.716244D-01  0.899601D-02 -0.425632D-02
     10 -0.276055D+00 -0.104286D+00  0.802608D-01  0.477837D-03  0.124659D-02
     11 -0.104287D+00 -0.971224D-01  0.368905D-01 -0.248743D-01 -0.783063D-02
     12  0.660721D-01  0.303682D-01 -0.716241D-01 -0.962643D-02 -0.252449D-02
     13 -0.968474D-01 -0.178308D-05  0.000000D+00 -0.852507D-03  0.742407D-03
     14  0.195286D-05 -0.968471D-01  0.000000D+00  0.741742D-03  0.705911D-02
     15  0.000000D+00  0.000000D+00 -0.158301D+00  0.425317D-03  0.457905D-02
     16  0.409108D-04  0.625360D-03 -0.176642D-03  0.360335D-03  0.394691D-04
     17  0.624596D-03  0.669384D-02 -0.190271D-02  0.395007D-04  0.781346D-03
     18 -0.300760D-02 -0.323045D-01 -0.108107D-01  0.189996D-03  0.204414D-02
     19  0.557195D-02  0.256864D-02  0.173605D-02  0.167866D-03  0.292213D-03
     20  0.256789D-02  0.116291D-02  0.798299D-03  0.757519D-03  0.217920D-03
     21  0.294804D-01  0.135478D-01 -0.108105D-01  0.361503D-03 -0.699154D-03
     22  0.448931D-02 -0.319290D-02 -0.155947D-02 -0.204453D-04 -0.247594D-03
     23 -0.319373D-02  0.224544D-02  0.110429D-02 -0.712549D-03  0.406931D-03
     24 -0.264728D-01  0.187568D-01 -0.108105D-01 -0.484356D-03 -0.620773D-03
                6             7             8             9            10 
      6  0.865418D-01
      7  0.262694D-02  0.238130D+00
      8  0.959897D-02 -0.137209D+00  0.141632D+00
      9  0.498543D-02  0.732893D-01 -0.519209D-01  0.865418D-01
     10 -0.811920D-03 -0.159846D-01 -0.107512D-01  0.699948D-02  0.284583D+00
     11  0.991893D-02  0.153697D-01  0.863183D-02 -0.707449D-02  0.110389D+00
     12  0.498543D-02 -0.818409D-02 -0.566261D-02  0.498543D-02 -0.816094D-01
     13 -0.340954D-02  0.443860D-02 -0.379655D-02 -0.300403D-01  0.572403D-02
     14 -0.366561D-01 -0.379724D-02  0.176807D-02  0.212807D-01  0.305439D-02
     15 -0.205334D-01  0.375285D-02 -0.265787D-02 -0.205333D-01 -0.417838D-02
     16  0.183019D-03 -0.249140D-03 -0.516760D-03 -0.722137D-03 -0.115667D-03
     17  0.196208D-02 -0.514545D-04  0.634927D-03  0.587754D-03  0.192617D-03
     18 -0.657807D-02 -0.786237D-03  0.365060D-04  0.111134D-02  0.779783D-03
     19 -0.147941D-03  0.715841D-03  0.287454D-03 -0.794133D-03  0.710288D-03
     20 -0.919266D-03 -0.177502D-03 -0.329355D-03  0.486600D-03  0.162576D-03
     21  0.111134D-02 -0.295427D-03  0.729851D-03  0.111191D-02 -0.186528D-02
     22 -0.243419D-04  0.641898D-03 -0.202061D-03  0.160771D-02  0.659954D-03
     23 -0.931040D-03 -0.202030D-03  0.499782D-03 -0.113954D-02 -0.810602D-05
     24  0.111191D-02  0.167528D-02 -0.118661D-02 -0.657807D-02  0.424734D-03
               11            12            13            14            15 
     11  0.951793D-01
     12 -0.375099D-01  0.865418D-01
     13  0.305522D-02  0.334496D-01  0.720024D+00
     14  0.482752D-03  0.153753D-01  0.000000D+00  0.720024D+00
     15 -0.192136D-02 -0.205331D-01  0.000000D+00  0.000000D+00  0.519962D+00
     16  0.657573D-03  0.818475D-03 -0.645171D-01 -0.274850D-01 -0.102914D-01
     17  0.502153D-03  0.444439D-03 -0.274844D-01 -0.357141D+00 -0.110525D+00
     18 -0.109078D-03  0.111191D-02 -0.108800D-01 -0.116849D+00 -0.100020D+00
     19  0.162545D-03 -0.179072D-02 -0.307787D+00 -0.112968D+00  0.100863D+00
     20  0.431393D-03 -0.822543D-03 -0.112967D+00 -0.113871D+00  0.463496D-01
     21 -0.857530D-03 -0.657807D-02  0.106634D+00  0.490021D-01 -0.100021D+00
     22 -0.473411D-03  0.870078D-03 -0.260182D+00  0.140452D+00 -0.905714D-01
     23 -0.274168D-03  0.331512D-03  0.140452D+00 -0.161476D+00  0.641750D-01
     24  0.662648D-03  0.111134D-02 -0.957542D-01  0.678468D-01 -0.100021D+00
               16            17            18            19            20 
     16  0.594900D-01
     17  0.296653D-01  0.375323D+00
     18  0.111411D-01  0.119663D+00  0.104307D+00
     19 -0.905719D-04  0.357984D-03 -0.756487D-03  0.322056D+00
     20 -0.308712D-01 -0.108114D-01  0.139496D-01  0.121927D+00  0.112757D+00
     21 -0.134113D-01 -0.391021D-02  0.543939D-02 -0.109202D+00 -0.501829D-01
     22  0.508141D-02 -0.334403D-02  0.331933D-02 -0.213438D-01  0.186006D-01
     23  0.278851D-01 -0.159834D-01  0.135697D-01 -0.126285D-01  0.104418D-01
     24  0.124589D-01 -0.631964D-02  0.543939D-02  0.100920D-01 -0.965946D-02
               21            22            23            24 
     21  0.104307D+00
     22 -0.117024D-01  0.270674D+00
     23 -0.762991D-02 -0.151592D+00  0.164139D+00
     24  0.543939D-02  0.980605D-01 -0.694799D-01  0.104307D+00
 Force constants in internal coordinates: 
                1             2             3             4             5 
      1  0.364357D+00
      2  0.122015D-02  0.364357D+00
      3  0.122023D-02  0.122019D-02  0.364357D+00
      4  0.270533D-02  0.270527D-02  0.270524D-02  0.265397D+00
      5 -0.122770D-02  0.305731D-03  0.305858D-03  0.455912D-02  0.423257D+00
      6  0.305736D-03  0.305818D-03 -0.122763D-02  0.455905D-02  0.186812D-02
      7  0.305846D-03 -0.122769D-02  0.305733D-03  0.455902D-02  0.186810D-02
      8  0.355005D-02  0.355106D-02 -0.134843D-02 -0.260269D-01  0.822296D-04
      9  0.355103D-02 -0.134853D-02  0.355020D-02 -0.260269D-01  0.826789D-04
     10  0.788398D-03 -0.341894D-02 -0.341930D-02  0.273714D-01  0.218116D-02
     11 -0.134852D-02  0.355010D-02  0.355115D-02 -0.260269D-01  0.920013D-03
     12 -0.341910D-02  0.788325D-03 -0.341902D-02  0.273714D-01 -0.166090D-02
     13 -0.341904D-02 -0.341918D-02  0.788206D-03  0.273716D-01 -0.166123D-02
     14  0.711239D-03  0.779738D-04  0.780286D-04  0.130783D-01 -0.444294D-02
     15  0.779706D-04  0.779696D-04  0.711258D-03  0.130782D-01 -0.375488D-02
     16  0.779695D-04  0.711237D-03  0.781049D-04  0.130782D-01 -0.375463D-02
     17 -0.414531D-03 -0.102986D-03 -0.414479D-03 -0.140548D-01  0.636586D-02
     18 -0.414406D-03 -0.414537D-03 -0.103074D-03 -0.140548D-01  0.636843D-02
     19 -0.102997D-03 -0.414411D-03 -0.414608D-03 -0.140548D-01  0.110677D-03
     20  0.000000D+00 -0.273941D-02  0.273922D-02  0.000000D+00  0.170938D-05
     21  0.127651D-04 -0.276388D-02  0.275151D-02  0.000000D+00  0.250207D-02
     22 -0.117236D-04 -0.275157D-02  0.276368D-02  0.000000D+00 -0.250210D-02
     23  0.275154D-02  0.127827D-04 -0.276386D-02  0.000000D+00  0.396028D-03
     24  0.276370D-02 -0.116896D-04 -0.275157D-02  0.000000D+00  0.289639D-02
     25  0.273921D-02  0.000000D+00 -0.273940D-02  0.000000D+00 -0.210779D-02
     26 -0.275154D-02  0.276368D-02 -0.116694D-04  0.000000D+00 -0.392959D-03
     27 -0.273938D-02  0.273921D-02  0.000000D+00  0.000000D+00  0.210740D-02
     28 -0.276387D-02  0.275153D-02  0.127848D-04  0.000000D+00 -0.289677D-02
                6             7             8             9            10 
      6  0.423257D+00
      7  0.186811D-02  0.423257D+00
      8  0.919985D-03  0.826658D-04  0.519699D-01
      9  0.821608D-04  0.920020D-03  0.120460D-01  0.519698D-01
     10 -0.166091D-02 -0.166122D-02 -0.453557D-01 -0.453527D-01  0.132583D+00
     11  0.826238D-04  0.822013D-04  0.120460D-01  0.120460D-01  0.107172D-01
     12 -0.166119D-02  0.218121D-02 -0.453527D-01  0.107172D-01 -0.242299D-01
     13  0.218129D-02 -0.166093D-02  0.107172D-01 -0.453556D-01 -0.242300D-01
     14 -0.375470D-02 -0.375483D-02 -0.399924D-02 -0.399959D-02  0.169332D-01
     15 -0.444301D-02 -0.375464D-02  0.325992D-02 -0.399928D-02 -0.597449D-02
     16 -0.375486D-02 -0.444300D-02 -0.399959D-02  0.325990D-02 -0.597506D-02
     17  0.636849D-02  0.110669D-03  0.756131D-03  0.358052D-02 -0.472879D-02
     18  0.110710D-03  0.636587D-02  0.358049D-02  0.756145D-03 -0.472849D-02
     19  0.636589D-02  0.636845D-02  0.756151D-03  0.756171D-03  0.410149D-02
     20 -0.210777D-02  0.210739D-02 -0.574851D-02  0.574701D-02  0.161525D-05
     21  0.396018D-03 -0.289677D-02 -0.529091D-02  0.483203D-02  0.148040D-02
     22  0.289639D-02 -0.392974D-03 -0.483352D-02  0.528964D-02 -0.147716D-02
     23 -0.289678D-02  0.250208D-02  0.483206D-02  0.457610D-03  0.737126D-02
     24 -0.392986D-03 -0.250208D-02  0.528966D-02 -0.457372D-03  0.885005D-02
     25  0.210738D-02  0.171377D-05  0.574706D-02  0.000000D+00  0.589248D-02
     26 -0.250208D-02  0.289638D-02 -0.457405D-03 -0.483353D-02 -0.737157D-02
     27  0.171139D-05 -0.210778D-02  0.000000D+00 -0.574851D-02 -0.589278D-02
     28  0.250208D-02  0.396010D-03  0.457589D-03 -0.529090D-02 -0.885035D-02
               11            12            13            14            15 
     11  0.519698D-01
     12 -0.453557D-01  0.132583D+00
     13 -0.453526D-01 -0.242300D-01  0.132583D+00
     14  0.325990D-02 -0.597445D-02 -0.597501D-02  0.975863D-01
     15 -0.399961D-02 -0.597504D-02  0.169333D-01 -0.180301D-01  0.975865D-01
     16 -0.399932D-02  0.169332D-01 -0.597437D-02 -0.180301D-01 -0.180302D-01
     17  0.756173D-03  0.410148D-02 -0.472861D-02 -0.397103D-01 -0.397096D-01
     18  0.756185D-03 -0.472886D-02  0.410144D-02 -0.397096D-01  0.132995D-01
     19  0.358055D-02 -0.472852D-02 -0.472893D-02  0.132995D-01 -0.397103D-01
     20  0.000000D+00 -0.589281D-02  0.589254D-02  0.000000D+00 -0.242592D-02
     21  0.457611D-03 -0.885035D-02  0.737129D-02  0.387413D-02  0.144900D-02
     22 -0.457374D-03 -0.737157D-02  0.885005D-02 -0.387471D-02  0.532300D-02
     23 -0.529090D-02  0.148040D-02 -0.885037D-02  0.144898D-02 -0.532286D-02
     24 -0.483351D-02 -0.147714D-02 -0.737162D-02  0.532297D-02 -0.144795D-02
     25 -0.574850D-02  0.164286D-05 -0.589286D-02 -0.242588D-02  0.242605D-02
     26  0.528963D-02  0.885005D-02 -0.147711D-02 -0.144795D-02 -0.387474D-02
     27  0.574701D-02  0.589250D-02  0.163707D-05  0.242604D-02  0.000000D+00
     28  0.483203D-02  0.737129D-02  0.148040D-02 -0.532281D-02  0.387417D-02
               16            17            18            19            20 
     16  0.975864D-01
     17  0.132995D-01  0.527837D-01
     18 -0.397103D-01  0.913702D-02  0.527837D-01
     19 -0.397096D-01  0.913701D-02  0.913700D-02  0.527837D-01
     20  0.242607D-02 -0.699288D-02  0.699257D-02  0.000000D+00  0.140776D-01
     21 -0.532282D-02  0.589677D-02  0.547988D-03 -0.644509D-02  0.349875D-02
     22 -0.144794D-02 -0.547834D-03 -0.589710D-02  0.644456D-02  0.349883D-02
     23  0.387417D-02 -0.644506D-02  0.589676D-02  0.547982D-03  0.384895D-02
     24 -0.387473D-02  0.644459D-02 -0.547819D-03 -0.589709D-02 -0.672992D-02
     25  0.000000D+00  0.000000D+00 -0.699290D-02  0.699256D-02 -0.672984D-02
     26  0.532298D-02 -0.589708D-02  0.644458D-02 -0.547811D-03  0.384906D-02
     27 -0.242592D-02  0.699256D-02  0.000000D+00 -0.699288D-02 -0.672981D-02
     28  0.144897D-02  0.547959D-03 -0.644508D-02  0.589677D-02 -0.672972D-02
               21            22            23            24            25 
     21  0.146651D-01
     22  0.379259D-02  0.146653D-01
     23 -0.702358D-02 -0.731744D-02  0.146651D-01
     24  0.414279D-02 -0.702367D-02  0.379260D-02  0.146653D-01
     25 -0.672974D-02  0.384903D-02  0.349875D-02  0.349885D-02  0.140776D-01
     26 -0.731742D-02 -0.702365D-02  0.414281D-02 -0.702367D-02 -0.672991D-02
     27  0.384896D-02 -0.672989D-02 -0.672972D-02  0.384904D-02 -0.672981D-02
     28 -0.702357D-02  0.414282D-02 -0.702358D-02 -0.731743D-02  0.384896D-02
               26            27            28 
     26  0.146653D-01
     27  0.349882D-02  0.140776D-01
     28  0.379259D-02  0.349874D-02  0.146651D-01
 Leave Link  716 at Thu Feb 26 00:43:14 2015, MaxMem= 1073741824 cpu:       0.2
 (Enter /apps/gaussian/g09_c01/g09/l103.exe)

 GradGradGradGradGradGradGradGradGradGradGradGradGradGradGradGradGradGrad
 Berny optimization.
 Red2BG is reusing G-inverse.
 Internal  Forces:  Max     0.006385917 RMS     0.001570918
 Search for a local minimum.
 Step number   1 out of a maximum of   38
 All quantities printed in internal units (Hartrees-Bohrs-Radians)
 RMS Force = .15709D-02 SwitMx=.10000D-02 MixMth= 1
 Mixed Optimization -- RFO/linear search
 Second derivative matrix not updated -- analytic derivatives used.
 ITU=  0
     Eigenvalues ---    0.00185   0.04672   0.04673   0.04809   0.04809
     Eigenvalues ---    0.12074   0.13044   0.13044   0.13219   0.19423
     Eigenvalues ---    0.19423   0.30356   0.36348   0.36348   0.36720
     Eigenvalues ---    0.42176   0.42176   0.42826
 RFO step:  Lambda=-2.23904231D-04 EMin= 1.85391788D-03
 Linear search not attempted -- first point.
 Iteration  1 RMS(Cart)=  0.00644704 RMS(Int)=  0.00000265
 Iteration  2 RMS(Cart)=  0.00000269 RMS(Int)=  0.00000131
 Iteration  3 RMS(Cart)=  0.00000000 RMS(Int)=  0.00000131
 ClnCor:  largest displacement from symmetrization is 6.85D-08 for atom     4.
 Variable       Old X    -DE/DX   Delta X   Delta X   Delta X     New X
                                 (Linear)    (Quad)   (Total)
    R1        2.05946   0.00197   0.00000   0.00561   0.00561   2.06507
    R2        2.05946   0.00197   0.00000   0.00561   0.00561   2.06507
    R3        2.05946   0.00197   0.00000   0.00561   0.00561   2.06507
    R4        2.86675  -0.00639   0.00000  -0.02507  -0.02507   2.84167
    R5        1.94289  -0.00226   0.00000  -0.00503  -0.00503   1.93786
    R6        1.94289  -0.00226   0.00000  -0.00503  -0.00503   1.93786
    R7        1.94289  -0.00226   0.00000  -0.00503  -0.00503   1.93786
    A1        1.93261   0.00035   0.00000  -0.00211  -0.00212   1.93049
    A2        1.93261   0.00035   0.00000  -0.00211  -0.00212   1.93049
    A3        1.88811  -0.00036   0.00000   0.00222   0.00222   1.89033
    A4        1.93261   0.00035   0.00000  -0.00211  -0.00212   1.93049
    A5        1.88811  -0.00036   0.00000   0.00222   0.00222   1.89033
    A6        1.88811  -0.00036   0.00000   0.00222   0.00222   1.89033
    A7        1.94749  -0.00032   0.00000  -0.00059  -0.00059   1.94690
    A8        1.94749  -0.00032   0.00000  -0.00059  -0.00059   1.94690
    A9        1.94749  -0.00032   0.00000  -0.00059  -0.00059   1.94690
   A10        1.87238   0.00034   0.00000   0.00063   0.00063   1.87301
   A11        1.87238   0.00034   0.00000   0.00063   0.00063   1.87301
   A12        1.87238   0.00034   0.00000   0.00063   0.00063   1.87301
    D1        3.14146   0.00000   0.00000   0.00013   0.00013  -3.14159
    D2       -1.04733   0.00000   0.00000   0.00013   0.00013  -1.04720
    D3        1.04707   0.00000   0.00000   0.00013   0.00013   1.04720
    D4       -1.04733   0.00000   0.00000   0.00013   0.00013  -1.04720
    D5        1.04707   0.00000   0.00000   0.00013   0.00013   1.04720
    D6        3.14146   0.00000   0.00000   0.00013   0.00013  -3.14159
    D7        1.04707   0.00000   0.00000   0.00013   0.00013   1.04720
    D8        3.14146   0.00000   0.00000   0.00013   0.00013  -3.14159
    D9       -1.04733   0.00000   0.00000   0.00013   0.00013  -1.04720
         Item               Value     Threshold  Converged?
 Maximum Force            0.006386     0.000002     NO 
 RMS     Force            0.001571     0.000001     NO 
 Maximum Displacement     0.015920     0.000006     NO 
 RMS     Displacement     0.006446     0.000004     NO 
 Predicted change in Energy=-1.120451D-04
 GradGradGradGradGradGradGradGradGradGradGradGradGradGradGradGradGradGrad

 Leave Link  103 at Thu Feb 26 00:43:14 2015, MaxMem= 1073741824 cpu:       0.0
 (Enter /apps/gaussian/g09_c01/g09/l202.exe)
                          Input orientation:                          
 ---------------------------------------------------------------------
 Center     Atomic      Atomic             Coordinates (Angstroms)
 Number     Number       Type             X           Y           Z
 ---------------------------------------------------------------------
      1          6           0        0.000000    0.000000   -0.796031
      2          1           0       -0.096127   -1.033011   -1.139301
      3          1           0       -0.846550    0.599754   -1.139301
      4          1           0        0.942677    0.433257   -1.139301
      5          7           0        0.000000    0.000000    0.707718
      6          1           0        0.088372    0.949692    1.084372
      7          1           0       -0.866644   -0.398313    1.084372
      8          1           0        0.778271   -0.551379    1.084372
 ---------------------------------------------------------------------
                    Distance matrix (angstroms):
                    1          2          3          4          5
     1  C    0.000000
     2  H    1.092788   0.000000
     3  H    1.092788   1.796957   0.000000
     4  H    1.092788   1.796957   1.796957   0.000000
     5  N    1.503748   2.118450   2.118450   2.118450   0.000000
     6  H    2.108468   2.984940   2.437469   2.437470   1.025472
     7  H    2.108468   2.437469   2.437470   2.984940   1.025472
     8  H    2.108468   2.437470   2.984940   2.437469   1.025472
                    6          7          8
     6  H    0.000000
     7  H    1.652021   0.000000
     8  H    1.652021   1.652021   0.000000
 Stoichiometry    CH6N(1+)
 Framework group  C3[C3(CN),X(H6)]
 Deg. of freedom     6
 Full point group                 C3      NOp   3
 RotChk:  IX=0 Diff= 0.00D+00
 Largest Abelian subgroup         C1      NOp   1
 Largest concise Abelian subgroup C1      NOp   1
                         Standard orientation:                         
 ---------------------------------------------------------------------
 Center     Atomic      Atomic             Coordinates (Angstroms)
 Number     Number       Type             X           Y           Z
 ---------------------------------------------------------------------
      1          6           0        0.000000    0.000000   -0.796718
      2          1           0        1.033011   -0.096127   -1.139988
      3          1           0       -0.599754   -0.846550   -1.139988
      4          1           0       -0.433257    0.942677   -1.139988
      5          7           0        0.000000    0.000000    0.707031
      6          1           0       -0.949692    0.088372    1.083685
      7          1           0        0.398313   -0.866643    1.083685
      8          1           0        0.551379    0.778271    1.083685
 ---------------------------------------------------------------------
 Rotational constants (GHZ):     84.1617986     20.1357645     20.1357645
 Leave Link  202 at Thu Feb 26 00:43:14 2015, MaxMem= 1073741824 cpu:       0.1
 (Enter /apps/gaussian/g09_c01/g09/l301.exe)
 Standard basis: Aug-CC-pVDZ (5D, 7F)
 Ernie: Thresh=  0.10000D-02 Tol=  0.10000D-05 Strict=F.
 Ernie:  4 primitive shells out of 92 were deleted.
 There are   100 symmetry adapted basis functions of A   symmetry.
 Integral buffers will be    131072 words long.
 Raffenetti 2 integral format.
 Two-electron integral symmetry is turned on.
   100 basis functions,   152 primitive gaussians,   104 cartesian basis functions
     9 alpha electrons        9 beta electrons
       nuclear repulsion energy        47.7752755468 Hartrees.
 IExCor=20419 DFT=T Ex+Corr=CAM-B3LYP ExCW=0 ScaHFX=  1.000000
 ScaDFX=  1.000000  1.000000  1.000000  0.810000 ScalE2=  1.000000  1.000000
 IRadAn=      5 IRanWt=     -1 IRanGd=            0 ICorTp=0
  HFx wShort=  0.000000 wLong=  0.330000 cFull=  0.190000 cShort=  0.000000 cLong=  0.460000
  DFx wShort=  0.000000 wLong=  0.330000 cFull=  0.190000 cShort=  0.000000 cLong=  0.460000
 NAtoms=    8 NActive=    8 NUniq=    4 SFac= 4.00D+00 NAtFMM=   60 NAOKFM=F Big=F
 Leave Link  301 at Thu Feb 26 00:43:14 2015, MaxMem= 1073741824 cpu:       0.3
 (Enter /apps/gaussian/g09_c01/g09/l302.exe)
 NPDir=0 NMtPBC=     1 NCelOv=     1 NCel=       1 NClECP=     1 NCelD=      1
         NCelK=      1 NCelE2=     1 NClLst=     1 CellRange=     0.0.
 One-electron integrals computed using PRISM.
 NBasis=   100 RedAO= T  NBF=   100
 NBsUse=   100 1.00D-06 NBFU=   100
 Precomputing XC quadrature grid using
 IXCGrd= 2 IRadAn=           5 IRanWt=          -1 IRanGd=           0 AccXCQ= 0.00D+00.
 NRdTot=     685 NPtTot=      183098 NUsed=      188010 NTot=      188042
 NSgBfM=   104   104   104   104   104 NAtAll=     8     8.
 Leave Link  302 at Thu Feb 26 00:43:14 2015, MaxMem= 1073741824 cpu:       1.2
 (Enter /apps/gaussian/g09_c01/g09/l303.exe)
 DipDrv:  MaxL=1.
 Leave Link  303 at Thu Feb 26 00:43:14 2015, MaxMem= 1073741824 cpu:       0.2
 (Enter /apps/gaussian/g09_c01/g09/l401.exe)
 Initial guess read from the read-write file.
 B after Tr=     0.000000    0.000000    0.000000
         Rot=    1.000000    0.000000    0.000000    0.000000 Ang=   0.00 deg.
 Guess basis will be translated and rotated to current coordinates.
 Initial guess orbital symmetries:
       Occupied  (A) (A) (A) (A) (E) (E) (A) (E) (E)
       Virtual   (A) (A) (E) (E) (E) (E) (A) (E) (E) (A) (A) (E)
                 (E) (E) (E) (A) (E) (E) (A) (E) (E) (A) (A) (E)
                 (E) (A) (A) (E) (E) (E) (E) (A) (A) (E) (E) (A)
                 (E) (E) (A) (E) (E) (A) (E) (E) (E) (E) (A) (E)
                 (E) (E) (E) (A) (A) (A) (E) (E) (E) (E) (E) (E)
                 (A) (A) (A) (E) (E) (A) (E) (E) (A) (E) (E) (A)
                 (E) (E) (E) (E) (E) (E) (A) (E) (E) (A) (A) (E)
                 (E) (A) (E) (E) (A) (E) (E)
 The electronic state of the initial guess is 1-A.
 Leave Link  401 at Thu Feb 26 00:43:14 2015, MaxMem= 1073741824 cpu:       0.6
 (Enter /apps/gaussian/g09_c01/g09/l502.exe)
 Closed shell SCF:
 Requested convergence on RMS density matrix=1.00D-08 within 128 cycles.
 Requested convergence on MAX density matrix=1.00D-06.
 Requested convergence on             energy=1.00D-06.
 No special actions if energy rises.
 Using DIIS extrapolation, IDIIS=  1040.
 Integral symmetry usage will be decided dynamically.
       187925 words used for storage of precomputed grid.
 IEnd=      240235 IEndB=      240235 NGot=  1073741824 MDV=  1073529150
 LenX=  1073529150 LenY=  1073517893
 Fock matrices will be formed incrementally for  20 cycles.

 Cycle   1  Pass 1  IDiag  1:
 FoFJK:  IHMeth= 1 ICntrl=     0 DoSepK=T KAlg= 1 I1Cent= 0 FoldK=F
 FoFCou: FMM=F IPFlag=           0 FMFlag=      100000 FMFlg1=           0
         NFxFlg=           0 DoJE=T BraDBF=F KetDBF=F FulRan=T
         Omega=  0.000000  0.000000  1.000000  0.000000  0.000000 ICntrl=     500 IOpCl=  0
         NMat0=    1 NMatS0=    1 NMatT0=    0 NMatD0=    1 NMtDS0=    0 NMtDT0=    0
         I1Cent=           0 NGrid=           0.
 Petite list used in FoFCou.
 E= -96.1682736661327    
 DIIS: error= 7.41D-04 at cycle   1 NSaved=   1.
 NSaved= 1 IEnMin= 1 EnMin= -96.1682736661327     IErMin= 1 ErrMin= 7.41D-04
 ErrMax= 7.41D-04 EMaxC= 1.00D-01 BMatC= 4.17D-05 BMatP= 4.17D-05
 IDIUse=3 WtCom= 9.93D-01 WtEn= 7.41D-03
 Coeff-Com:  0.100D+01
 Coeff-En:   0.100D+01
 Coeff:      0.100D+01
 Gap=     0.512 Goal=   None    Shift=    0.000
 DSYEVD returned Info=         201 IAlg= 4 N=   100 NDim=   100 NE2=    10735177 trying DSYEV.
 RMSDP=1.97D-04 MaxDP=3.07D-03              OVMax= 2.85D-03

 Cycle   2  Pass 1  IDiag  1:
 RMSU=  1.39D-04    CP:  1.00D+00
 FoFJK:  IHMeth= 1 ICntrl=     0 DoSepK=T KAlg= 1 I1Cent= 0 FoldK=F
 E= -96.1683239960864     Delta-E=       -0.000050329954 Rises=F Damp=F
 DIIS: error= 1.50D-04 at cycle   2 NSaved=   2.
 NSaved= 2 IEnMin= 2 EnMin= -96.1683239960864     IErMin= 2 ErrMin= 1.50D-04
 ErrMax= 1.50D-04 EMaxC= 1.00D-01 BMatC= 1.58D-06 BMatP= 4.17D-05
 IDIUse=3 WtCom= 9.98D-01 WtEn= 1.50D-03
 Coeff-Com: -0.364D-01 0.104D+01
 Coeff-En:   0.000D+00 0.100D+01
 Coeff:     -0.363D-01 0.104D+01
 Gap=     0.510 Goal=   None    Shift=    0.000
 DSYEVD returned Info=         201 IAlg= 4 N=   100 NDim=   100 NE2=    10735177 trying DSYEV.
 RMSDP=2.80D-05 MaxDP=5.53D-04 DE=-5.03D-05 OVMax= 6.37D-04

 Cycle   3  Pass 1  IDiag  1:
 RMSU=  1.57D-05    CP:  1.00D+00  1.09D+00
 FoFJK:  IHMeth= 1 ICntrl=     0 DoSepK=T KAlg= 1 I1Cent= 0 FoldK=F
 E= -96.1683256661852     Delta-E=       -0.000001670099 Rises=F Damp=F
 DIIS: error= 1.09D-04 at cycle   3 NSaved=   3.
 NSaved= 3 IEnMin= 3 EnMin= -96.1683256661852     IErMin= 3 ErrMin= 1.09D-04
 ErrMax= 1.09D-04 EMaxC= 1.00D-01 BMatC= 6.40D-07 BMatP= 1.58D-06
 IDIUse=3 WtCom= 9.99D-01 WtEn= 1.09D-03
 Coeff-Com: -0.503D-01 0.403D+00 0.648D+00
 Coeff-En:   0.000D+00 0.000D+00 0.100D+01
 Coeff:     -0.502D-01 0.402D+00 0.648D+00
 Gap=     0.511 Goal=   None    Shift=    0.000
 DSYEVD returned Info=         201 IAlg= 4 N=   100 NDim=   100 NE2=    10735177 trying DSYEV.
 RMSDP=7.57D-06 MaxDP=2.06D-04 DE=-1.67D-06 OVMax= 2.48D-04

 Cycle   4  Pass 1  IDiag  1:
 RMSU=  4.93D-06    CP:  1.00D+00  1.09D+00  8.96D-01
 FoFJK:  IHMeth= 1 ICntrl=     0 DoSepK=T KAlg= 1 I1Cent= 0 FoldK=F
 E= -96.1683263031601     Delta-E=       -0.000000636975 Rises=F Damp=F
 DIIS: error= 1.11D-05 at cycle   4 NSaved=   4.
 NSaved= 4 IEnMin= 4 EnMin= -96.1683263031601     IErMin= 4 ErrMin= 1.11D-05
 ErrMax= 1.11D-05 EMaxC= 1.00D-01 BMatC= 1.09D-08 BMatP= 6.40D-07
 IDIUse=1 WtCom= 1.00D+00 WtEn= 0.00D+00
 Coeff-Com: -0.641D-03-0.328D-01 0.680D-01 0.965D+00
 Coeff:     -0.641D-03-0.328D-01 0.680D-01 0.965D+00
 Gap=     0.511 Goal=   None    Shift=    0.000
 RMSDP=1.83D-06 MaxDP=3.58D-05 DE=-6.37D-07 OVMax= 4.61D-05

 Cycle   5  Pass 1  IDiag  1:
 RMSU=  5.77D-07    CP:  1.00D+00  1.09D+00  9.65D-01  1.08D+00
 FoFJK:  IHMeth= 1 ICntrl=     0 DoSepK=T KAlg= 1 I1Cent= 0 FoldK=F
 E= -96.1683263176082     Delta-E=       -0.000000014448 Rises=F Damp=F
 DIIS: error= 2.05D-06 at cycle   5 NSaved=   5.
 NSaved= 5 IEnMin= 5 EnMin= -96.1683263176082     IErMin= 5 ErrMin= 2.05D-06
 ErrMax= 2.05D-06 EMaxC= 1.00D-01 BMatC= 6.01D-10 BMatP= 1.09D-08
 IDIUse=1 WtCom= 1.00D+00 WtEn= 0.00D+00
 Coeff-Com:  0.143D-02-0.233D-01-0.685D-02 0.238D+00 0.791D+00
 Coeff:      0.143D-02-0.233D-01-0.685D-02 0.238D+00 0.791D+00
 Gap=     0.511 Goal=   None    Shift=    0.000
 DSYEVD returned Info=         201 IAlg= 4 N=   100 NDim=   100 NE2=    10735177 trying DSYEV.
 RMSDP=3.61D-07 MaxDP=7.58D-06 DE=-1.44D-08 OVMax= 8.18D-06

 Cycle   6  Pass 1  IDiag  1:
 RMSU=  1.75D-07    CP:  1.00D+00  1.09D+00  9.71D-01  1.11D+00  1.05D+00
 FoFJK:  IHMeth= 1 ICntrl=     0 DoSepK=T KAlg= 1 I1Cent= 0 FoldK=F
 E= -96.1683263180898     Delta-E=       -0.000000000482 Rises=F Damp=F
 DIIS: error= 1.53D-06 at cycle   6 NSaved=   6.
 NSaved= 6 IEnMin= 6 EnMin= -96.1683263180898     IErMin= 6 ErrMin= 1.53D-06
 ErrMax= 1.53D-06 EMaxC= 1.00D-01 BMatC= 1.09D-10 BMatP= 6.01D-10
 IDIUse=1 WtCom= 1.00D+00 WtEn= 0.00D+00
 Coeff-Com:  0.640D-03-0.716D-02-0.756D-02 0.332D-01 0.337D+00 0.644D+00
 Coeff:      0.640D-03-0.716D-02-0.756D-02 0.332D-01 0.337D+00 0.644D+00
 Gap=     0.511 Goal=   None    Shift=    0.000
 DSYEVD returned Info=         201 IAlg= 4 N=   100 NDim=   100 NE2=    10735177 trying DSYEV.
 RMSDP=1.16D-07 MaxDP=3.26D-06 DE=-4.82D-10 OVMax= 4.40D-06

 Cycle   7  Pass 1  IDiag  1:
 RMSU=  5.74D-08    CP:  1.00D+00  1.09D+00  9.71D-01  1.12D+00  1.12D+00
                    CP:  1.03D+00
 FoFJK:  IHMeth= 1 ICntrl=     0 DoSepK=T KAlg= 1 I1Cent= 0 FoldK=F
 E= -96.1683263181862     Delta-E=       -0.000000000096 Rises=F Damp=F
 DIIS: error= 1.63D-07 at cycle   7 NSaved=   7.
 NSaved= 7 IEnMin= 7 EnMin= -96.1683263181862     IErMin= 7 ErrMin= 1.63D-07
 ErrMax= 1.63D-07 EMaxC= 1.00D-01 BMatC= 2.86D-12 BMatP= 1.09D-10
 IDIUse=1 WtCom= 1.00D+00 WtEn= 0.00D+00
 Coeff-Com: -0.769D-04 0.153D-02-0.270D-03-0.193D-01-0.391D-01 0.958D-01
 Coeff-Com:  0.961D+00
 Coeff:     -0.769D-04 0.153D-02-0.270D-03-0.193D-01-0.391D-01 0.958D-01
 Coeff:      0.961D+00
 Gap=     0.511 Goal=   None    Shift=    0.000
 DSYEVD returned Info=         201 IAlg= 4 N=   100 NDim=   100 NE2=    10735177 trying DSYEV.
 RMSDP=2.15D-08 MaxDP=4.52D-07 DE=-9.64D-11 OVMax= 4.80D-07

 Cycle   8  Pass 1  IDiag  1:
 RMSU=  5.77D-09    CP:  1.00D+00  1.09D+00  9.71D-01  1.12D+00  1.14D+00
                    CP:  1.09D+00  9.74D-01
 FoFJK:  IHMeth= 1 ICntrl=     0 DoSepK=T KAlg= 1 I1Cent= 0 FoldK=F
 E= -96.1683263181888     Delta-E=       -0.000000000003 Rises=F Damp=F
 DIIS: error= 8.47D-09 at cycle   8 NSaved=   8.
 NSaved= 8 IEnMin= 8 EnMin= -96.1683263181888     IErMin= 8 ErrMin= 8.47D-09
 ErrMax= 8.47D-09 EMaxC= 1.00D-01 BMatC= 4.99D-15 BMatP= 2.86D-12
 IDIUse=1 WtCom= 1.00D+00 WtEn= 0.00D+00
 Coeff-Com:  0.245D-05-0.936D-04 0.128D-03 0.171D-02-0.223D-03-0.147D-01
 Coeff-Com: -0.957D-01 0.111D+01
 Coeff:      0.245D-05-0.936D-04 0.128D-03 0.171D-02-0.223D-03-0.147D-01
 Coeff:     -0.957D-01 0.111D+01
 Gap=     0.511 Goal=   None    Shift=    0.000
 DSYEVD returned Info=         201 IAlg= 4 N=   100 NDim=   100 NE2=    10735177 trying DSYEV.
 RMSDP=1.87D-09 MaxDP=2.36D-08 DE=-2.64D-12 OVMax= 4.41D-08

 SCF Done:  E(RCAM-B3LYP) =  -96.1683263182     A.U. after    8 cycles
             Convg  =    0.1872D-08             -V/T =  2.0075
 KE= 9.544854551501D+01 PE=-3.133492197478D+02 EE= 7.395707236786D+01
 Leave Link  502 at Thu Feb 26 00:43:18 2015, MaxMem= 1073741824 cpu:      31.3
 (Enter /apps/gaussian/g09_c01/g09/l801.exe)
 Range of M.O.s used for correlation:     1   100
 NBasis=   100 NAE=     9 NBE=     9 NFC=     0 NFV=     0
 NROrb=    100 NOA=     9 NOB=     9 NVA=    91 NVB=    91

 **** Warning!!: The largest alpha MO coefficient is  0.19970551D+02

 Leave Link  801 at Thu Feb 26 00:43:18 2015, MaxMem= 1073741824 cpu:       0.1
 (Enter /apps/gaussian/g09_c01/g09/l1002.exe)
 Minotr:  Closed shell wavefunction.
          Direct CPHF calculation.
          Differentiating once with respect to electric field.
                with respect to dipole field.
          Electric field/nuclear overlap derivatives assumed to be zero.
          Using symmetry in CPHF.
          Requested convergence is 1.0D-08 RMS, and 1.0D-07 maximum.
          Secondary convergence is 1.0D-12 RMS, and 1.0D-12 maximum.
          NewPWx=F KeepS1=T KeepF1=T KeepIn=T MapXYZ=F SortEE=F KeepMc=T.
          MDV=    1073741756 using IRadAn=       1.
 Generate precomputed XC quadrature information.
          Solving linear equations simultaneously, MaxMat=       0.
          There are     3 degrees of freedom in the 1st order CPHF.  IDoFFX=0.
      3 vectors produced by pass  0 Test12= 2.73D-14 3.33D-08 XBig12= 7.39D+00 9.50D-01.
 AX will form     3 AO Fock derivatives at one time.
 FoFJK:  IHMeth= 1 ICntrl=     0 DoSepK=T KAlg= 1 I1Cent= 0 FoldK=F
 FoFCou: FMM=F IPFlag=           0 FMFlag=      100000 FMFlg1=           0
         NFxFlg=           0 DoJE=T BraDBF=F KetDBF=F FulRan=T
         Omega=  0.000000  0.000000  1.000000  0.000000  0.000000 ICntrl=     500 IOpCl=  0
         NMat0=    3 NMatS0=    3 NMatT0=    0 NMatD0=    3 NMtDS0=    0 NMtDT0=    0
         I1Cent=           0 NGrid=           0.
 Symmetry not used in FoFCou.
      3 vectors produced by pass  1 Test12= 2.73D-14 3.33D-08 XBig12= 3.30D-01 2.44D-01.
 FoFJK:  IHMeth= 1 ICntrl=     0 DoSepK=T KAlg= 1 I1Cent= 0 FoldK=F
      3 vectors produced by pass  2 Test12= 2.73D-14 3.33D-08 XBig12= 5.80D-02 5.80D-02.
 FoFJK:  IHMeth= 1 ICntrl=     0 DoSepK=T KAlg= 1 I1Cent= 0 FoldK=F
      3 vectors produced by pass  3 Test12= 2.73D-14 3.33D-08 XBig12= 2.71D-03 1.25D-02.
 FoFJK:  IHMeth= 1 ICntrl=     0 DoSepK=T KAlg= 1 I1Cent= 0 FoldK=F
      3 vectors produced by pass  4 Test12= 2.73D-14 3.33D-08 XBig12= 6.18D-04 4.59D-03.
 FoFJK:  IHMeth= 1 ICntrl=     0 DoSepK=T KAlg= 1 I1Cent= 0 FoldK=F
      3 vectors produced by pass  5 Test12= 2.73D-14 3.33D-08 XBig12= 1.42D-05 1.00D-03.
 FoFJK:  IHMeth= 1 ICntrl=     0 DoSepK=T KAlg= 1 I1Cent= 0 FoldK=F
      3 vectors produced by pass  6 Test12= 2.73D-14 3.33D-08 XBig12= 3.72D-07 1.24D-04.
 FoFJK:  IHMeth= 1 ICntrl=     0 DoSepK=T KAlg= 1 I1Cent= 0 FoldK=F
      3 vectors produced by pass  7 Test12= 2.73D-14 3.33D-08 XBig12= 8.42D-09 2.58D-05.
 FoFJK:  IHMeth= 1 ICntrl=     0 DoSepK=T KAlg= 1 I1Cent= 0 FoldK=F
      1 vectors produced by pass  8 Test12= 2.73D-14 3.33D-08 XBig12= 5.82D-11 1.65D-06.
 FoFJK:  IHMeth= 1 ICntrl=     0 DoSepK=T KAlg= 1 I1Cent= 0 FoldK=F
      1 vectors produced by pass  9 Test12= 2.73D-14 3.33D-08 XBig12= 2.74D-13 1.41D-07.
 FoFJK:  IHMeth= 1 ICntrl=     0 DoSepK=T KAlg= 1 I1Cent= 0 FoldK=F
 Inverted reduced A of dimension    26 with in-core refinement.
 End of Minotr Frequency-dependent properties file   721 does not exist.
 End of Minotr Frequency-dependent properties file   722 does not exist.
 Leave Link 1002 at Thu Feb 26 00:43:27 2015, MaxMem= 1073741824 cpu:      69.5
 (Enter /apps/gaussian/g09_c01/g09/l1101.exe)
 Using compressed storage, NAtomX=     8.
 Will process   9 centers per pass.
 Leave Link 1101 at Thu Feb 26 00:43:27 2015, MaxMem= 1073741824 cpu:       1.1
 (Enter /apps/gaussian/g09_c01/g09/l1102.exe)
 Symmetrizing basis deriv contribution to polar:
 IMax=3 JMax=2 DiffMx= 0.00D+00
 Leave Link 1102 at Thu Feb 26 00:43:27 2015, MaxMem= 1073741824 cpu:       0.2
 (Enter /apps/gaussian/g09_c01/g09/l1110.exe)
 Forming Gx(P) for the SCF density, NAtomX=     8.
 Integral derivatives from FoFDir/FoFCou, PRISM(SPDF).
 Do as many integral derivatives as possible in FoFDir.
 G2DrvN: MDV=    1073741656.
 G2DrvN: will do     9 centers at a time, making    1 passes doing MaxLOS=2.
 Calling FoFCou, ICntrl=  3107 FMM=F I1Cent=   0 AccDes= 0.00D+00.
 FoFJK:  IHMeth= 1 ICntrl=  3107 DoSepK=T KAlg= 1 I1Cent= 0 FoldK=F
 FoFCou: FMM=F IPFlag=           0 FMFlag=      100000 FMFlg1=           0
         NFxFlg=           0 DoJE=F BraDBF=F KetDBF=F FulRan=T
         Omega=  0.000000  0.000000  1.000000  0.000000  0.000000 ICntrl=    3507 IOpCl=  0
         NMat0=    1 NMatS0=    1 NMatT0=    0 NMatD0=    4 NMtDS0=    3 NMtDT0=    0
         I1Cent=           0 NGrid=           0.
 Petite list used in FoFCou.
 FoFDir/FoFCou used for L=0 through L=2.
 End of G2Drv Frequency-dependent properties file   721 does not exist.
 End of G2Drv Frequency-dependent properties file   722 does not exist.
 Leave Link 1110 at Thu Feb 26 00:43:35 2015, MaxMem= 1073741824 cpu:      60.6
 (Enter /apps/gaussian/g09_c01/g09/l1002.exe)
 Minotr:  Closed shell wavefunction.
          IDoAtm=11111111
          Direct CPHF calculation.
          Differentiating once with respect to electric field.
                with respect to dipole field.
          Differentiating once with respect to nuclear coordinates.
          Using symmetry in CPHF.
          Requested convergence is 1.0D-08 RMS, and 1.0D-07 maximum.
          Secondary convergence is 1.0D-12 RMS, and 1.0D-12 maximum.
          NewPWx=T KeepS1=F KeepF1=F KeepIn=T MapXYZ=F SortEE=F KeepMc=T.
          MDV=    1073741740 using IRadAn=       1.
 Generate precomputed XC quadrature information.
          Solving linear equations simultaneously, MaxMat=       0.
 FoFJK:  IHMeth= 1 ICntrl=     0 DoSepK=T KAlg= 1 I1Cent= 0 FoldK=F
 FoFCou: FMM=F IPFlag=           0 FMFlag=      100000 FMFlg1=           0
         NFxFlg=           0 DoJE=F BraDBF=F KetDBF=F FulRan=T
         Omega=  0.000000  0.000000  1.000000  0.000000  0.000000 ICntrl=     500 IOpCl=  0
         NMat0=   15 NMatS0=   15 NMatT0=    0 NMatD0=   15 NMtDS0=    0 NMtDT0=    0
         I1Cent=           0 NGrid=           0.
 Integrals replicated using symmetry in FoFCou.
          There are    15 degrees of freedom in the 1st order CPHF.  IDoFFX=4.
 Will reuse    3 saved solutions.
     12 vectors produced by pass  0 Test12= 5.46D-15 6.67D-09 XBig12= 6.67D-02 6.62D-02.
 AX will form    12 AO Fock derivatives at one time.
 FoFJK:  IHMeth= 1 ICntrl=     0 DoSepK=T KAlg= 1 I1Cent= 0 FoldK=F
     12 vectors produced by pass  1 Test12= 5.46D-15 6.67D-09 XBig12= 5.89D-03 2.52D-02.
 FoFJK:  IHMeth= 1 ICntrl=     0 DoSepK=T KAlg= 1 I1Cent= 0 FoldK=F
     12 vectors produced by pass  2 Test12= 5.46D-15 6.67D-09 XBig12= 3.59D-04 5.78D-03.
 FoFJK:  IHMeth= 1 ICntrl=     0 DoSepK=T KAlg= 1 I1Cent= 0 FoldK=F
     12 vectors produced by pass  3 Test12= 5.46D-15 6.67D-09 XBig12= 5.13D-06 3.74D-04.
 FoFJK:  IHMeth= 1 ICntrl=     0 DoSepK=T KAlg= 1 I1Cent= 0 FoldK=F
     12 vectors produced by pass  4 Test12= 5.46D-15 6.67D-09 XBig12= 2.31D-08 4.04D-05.
 FoFJK:  IHMeth= 1 ICntrl=     0 DoSepK=T KAlg= 1 I1Cent= 0 FoldK=F
     12 vectors produced by pass  5 Test12= 5.46D-15 6.67D-09 XBig12= 7.99D-11 1.72D-06.
 FoFJK:  IHMeth= 1 ICntrl=     0 DoSepK=T KAlg= 1 I1Cent= 0 FoldK=F
      7 vectors produced by pass  6 Test12= 5.46D-15 6.67D-09 XBig12= 2.56D-13 1.26D-07.
 FoFJK:  IHMeth= 1 ICntrl=     0 DoSepK=T KAlg= 1 I1Cent= 0 FoldK=F
 Inverted reduced A of dimension    79 with in-core refinement.
 FullF1:  Do perturbations    1 to    15.
 FoFJK:  IHMeth= 1 ICntrl=     0 DoSepK=T KAlg= 1 I1Cent= 0 FoldK=F
 Isotropic polarizability for W=    0.000000       20.36 Bohr**3.
 FoFJK:  IHMeth= 1 ICntrl=     0 DoSepK=T KAlg= 1 I1Cent= 0 FoldK=F
 FullF1:  Do perturbations    1 to     6.
 FoFJK:  IHMeth= 1 ICntrl=     0 DoSepK=T KAlg= 1 I1Cent= 0 FoldK=F
 End of Minotr Frequency-dependent properties file   721 does not exist.
 End of Minotr Frequency-dependent properties file   722 does not exist.
 Leave Link 1002 at Thu Feb 26 00:43:48 2015, MaxMem= 1073741824 cpu:     105.3
 (Enter /apps/gaussian/g09_c01/g09/l701.exe)
 Compute integral second derivatives.
 ... and contract with generalized density number  0.
[...]
      5        7           0.000000000    0.000000000   -0.000000006
      6        1          -0.000000098    0.000000010   -0.000000001
      7        1           0.000000041   -0.000000090   -0.000000001
      8        1           0.000000058    0.000000080   -0.000000001
 -------------------------------------------------------------------
 Cartesian Forces:  Max     0.000000098 RMS     0.000000047
 Force constants in Cartesian coordinates: 
                1             2             3             4             5 
      1  0.638074D+00
      2  0.000000D+00  0.638073D+00
      3  0.000000D+00  0.000000D+00  0.426529D+00
      4 -0.521558D-01 -0.247090D-01 -0.804728D-02  0.475583D-01
      5 -0.247081D-01 -0.315370D+00 -0.864393D-01  0.261959D-01  0.326617D+00
      6 -0.655643D-02 -0.704213D-01 -0.722993D-01  0.819922D-02  0.880758D-01
      7 -0.228168D+00  0.126329D+00 -0.708350D-01  0.440518D-02 -0.346633D-02
      8  0.126329D+00 -0.139358D+00  0.501888D-01  0.223811D-01 -0.118263D-01
      9 -0.577083D-01  0.408885D-01 -0.722992D-01  0.898588D-02 -0.424880D-02
     10 -0.270965D+00 -0.101621D+00  0.788821D-01  0.421926D-03  0.116659D-02
     11 -0.101621D+00 -0.965611D-01  0.362504D-01 -0.246809D-01 -0.784305D-02
     12  0.642646D-01  0.295324D-01 -0.722989D-01 -0.961546D-02 -0.251768D-02
     13 -0.970413D-01  0.000000D+00  0.000000D+00 -0.792592D-03  0.724367D-03
     14  0.000000D+00 -0.970408D-01  0.000000D+00  0.724591D-03  0.692446D-02
     15  0.000000D+00  0.000000D+00 -0.175239D+00  0.412590D-03  0.443278D-02
     16  0.123395D-03  0.618430D-03 -0.179618D-03  0.405495D-03  0.424334D-04
     17  0.618514D-03  0.671418D-02 -0.193095D-02  0.424804D-04  0.858011D-03
     18 -0.308260D-02 -0.331276D-01 -0.114645D-01  0.188223D-03  0.202142D-02
     19  0.560219D-02  0.254456D-02  0.176199D-02  0.176097D-03  0.300128D-03
     20  0.254465D-02  0.123549D-02  0.809847D-03  0.780857D-03  0.222484D-03
     21  0.302306D-01  0.138943D-01 -0.114643D-01  0.345142D-03 -0.699938D-03
     22  0.453083D-02 -0.316317D-02 -0.158245D-02 -0.184247D-04 -0.254934D-03
     23 -0.316315D-02  0.230675D-02  0.112098D-02 -0.735609D-03  0.416866D-03
     24 -0.271481D-01  0.192333D-01 -0.114643D-01 -0.468325D-03 -0.624431D-03
                6             7             8             9            10 
      6  0.876050D-01
      7  0.262735D-02  0.234166D+00
      8  0.958608D-02 -0.133934D+00  0.140009D+00
      9  0.490959D-02  0.721763D-01 -0.511387D-01  0.876050D-01
     10 -0.813368D-03 -0.159588D-01 -0.106240D-01  0.698811D-02  0.279539D+00
     11  0.990640D-02  0.152235D-01  0.853767D-02 -0.706839D-02  0.107738D+00
     12  0.490959D-02 -0.817251D-02 -0.565760D-02  0.490959D-02 -0.803755D-01
     13 -0.346125D-02  0.436785D-02 -0.370395D-02 -0.304831D-01  0.562279D-02
     14 -0.371973D-01 -0.370374D-02  0.176410D-02  0.215961D-01  0.297938D-02
     15 -0.207539D-01  0.363253D-02 -0.257372D-02 -0.207537D-01 -0.404536D-02
     16  0.180333D-03 -0.257193D-03 -0.530697D-03 -0.724308D-03 -0.120875D-03
     17  0.193848D-02 -0.499676D-04  0.655774D-03  0.617994D-03  0.195785D-03
     18 -0.660643D-02 -0.778735D-03  0.510667D-04  0.111760D-02  0.774935D-03
     19 -0.173045D-03  0.736961D-03  0.299487D-03 -0.823085D-03  0.781651D-03
     20 -0.936266D-03 -0.181188D-03 -0.338520D-03  0.478502D-03  0.174740D-03
     21  0.111760D-02 -0.306610D-03  0.717797D-03  0.111763D-02 -0.184471D-02
     22 -0.285253D-05  0.708114D-03 -0.217197D-03  0.158861D-02  0.678967D-03
     23 -0.952063D-03 -0.217150D-03  0.555393D-03 -0.112541D-02 -0.979541D-05
     24  0.111763D-02  0.165649D-02 -0.117372D-02 -0.660643D-02  0.433593D-03
               11            12            13            14            15 
     11  0.946367D-01
     12 -0.369372D-01  0.876050D-01
     13  0.297934D-02  0.339442D-01  0.728723D+00
     14  0.509263D-03  0.156011D-01  0.000000D+00  0.728723D+00
     15 -0.185926D-02 -0.207535D-01  0.000000D+00  0.000000D+00  0.538288D+00
     16  0.676459D-03  0.825937D-03 -0.641557D-01 -0.280550D-01 -0.105068D-01
     17  0.519316D-03  0.473561D-03 -0.280549D-01 -0.363097D+00 -0.112936D+00
     18 -0.933658D-04  0.111763D-02 -0.110417D-01 -0.118686D+00 -0.100263D+00
     19  0.174694D-03 -0.176894D-02 -0.312658D+00 -0.115418D+00  0.103059D+00
     20  0.481855D-03 -0.813068D-03 -0.115418D+00 -0.114595D+00  0.473689D-01
     21 -0.847704D-03 -0.660643D-02  0.108306D+00  0.497805D-01 -0.100263D+00
     22 -0.490525D-03  0.897353D-03 -0.264066D+00  0.143473D+00 -0.925523D-01
     23 -0.280387D-03  0.318272D-03  0.143473D+00 -0.163188D+00  0.655673D-01
     24  0.648871D-03  0.111760D-02 -0.972640D-01  0.689052D-01 -0.100263D+00
               16            17            18            19            20 
     16  0.589471D-01
     17  0.302556D-01  0.381331D+00
     18  0.113601D-01  0.122111D+00  0.105123D+00
     19 -0.754330D-04  0.337234D-03 -0.781644D-03  0.326937D+00
     20 -0.310908D-01 -0.108860D-01  0.140546D-01  0.124468D+00  0.113341D+00
     21 -0.135181D-01 -0.392338D-02  0.548785D-02 -0.111431D+00 -0.512173D-01
     22  0.513333D-02 -0.334451D-02  0.336131D-02 -0.215001D-01  0.187213D-01
     23  0.280836D-01 -0.160948D-01  0.136687D-01 -0.127068D-01  0.105386D-01
     24  0.125625D-01 -0.635037D-02  0.548785D-02  0.101568D-01 -0.974534D-02
               21            22            23            24 
     21  0.105123D+00
     22 -0.117808D-01  0.274533D+00
     23 -0.770422D-02 -0.154724D+00  0.165745D+00
     24  0.548785D-02  0.100071D+00 -0.708936D-01  0.105123D+00
 Red2BG is reusing G-inverse.
 Force constants in internal coordinates: 
                1             2             3             4             5 
      1  0.357990D+00
      2  0.127543D-02  0.357990D+00
      3  0.127551D-02  0.127547D-02  0.357990D+00
      4  0.299730D-02  0.299724D-02  0.299720D-02  0.285007D+00
      5 -0.127582D-02  0.304245D-03  0.304145D-03  0.478932D-02  0.430297D+00
      6  0.304249D-03  0.304105D-03 -0.127575D-02  0.478924D-02  0.191360D-02
      7  0.304133D-03 -0.127581D-02  0.304241D-03  0.478922D-02  0.191359D-02
      8  0.340072D-02  0.340143D-02 -0.128071D-02 -0.262742D-01  0.780292D-04
      9  0.340140D-02 -0.128081D-02  0.340088D-02 -0.262742D-01  0.780851D-04
     10  0.126599D-02 -0.352211D-02 -0.352244D-02  0.274977D-01  0.228411D-02
     11 -0.128080D-02  0.340076D-02  0.340152D-02 -0.262742D-01  0.947134D-03
     12 -0.352223D-02  0.126591D-02 -0.352218D-02  0.274977D-01 -0.171972D-02
     13 -0.352220D-02 -0.352230D-02  0.126579D-02  0.274979D-01 -0.171902D-02
     14  0.803162D-03  0.595224D-04  0.597998D-04  0.136265D-01 -0.435057D-02
     15  0.595259D-04  0.597426D-04  0.803179D-03  0.136264D-01 -0.379314D-02
     16  0.597350D-04  0.803155D-03  0.596632D-04  0.136264D-01 -0.379284D-02
     17 -0.446141D-03 -0.978690D-04 -0.446252D-03 -0.146276D-01  0.634869D-02
     18 -0.446174D-03 -0.446144D-03 -0.979587D-04 -0.146276D-01  0.635121D-02
     19 -0.978807D-04 -0.446179D-03 -0.446220D-03 -0.146276D-01  0.113647D-03
     20  0.000000D+00 -0.276378D-02  0.276373D-02  0.000000D+00  0.175392D-05
     21  0.219809D-04 -0.280692D-02  0.278532D-02  0.000000D+00  0.252178D-02
     22 -0.211762D-04 -0.278530D-02  0.280685D-02  0.000000D+00 -0.252168D-02
     23  0.278535D-02  0.219933D-04 -0.280690D-02  0.000000D+00  0.418589D-03
     24  0.280688D-02 -0.211461D-04 -0.278531D-02  0.000000D+00  0.293861D-02
     25  0.276372D-02  0.000000D+00 -0.276378D-02  0.000000D+00 -0.210484D-02
     26 -0.278528D-02  0.280685D-02 -0.211212D-04  0.000000D+00 -0.415547D-03
     27 -0.276375D-02  0.276372D-02  0.000000D+00  0.000000D+00  0.210447D-02
     28 -0.280691D-02  0.278534D-02  0.219972D-04  0.000000D+00 -0.293898D-02
                6             7             8             9            10 
      6  0.430297D+00
      7  0.191359D-02  0.430297D+00
      8  0.947104D-03  0.780726D-04  0.523677D-01
      9  0.779558D-04  0.947142D-03  0.122196D-01  0.523676D-01
     10 -0.171972D-02 -0.171900D-02 -0.456936D-01 -0.456913D-01  0.133408D+00
     11  0.780262D-04  0.780014D-04  0.122196D-01  0.122196D-01  0.110013D-01
     12 -0.171898D-02  0.228414D-02 -0.456913D-01  0.110013D-01 -0.246405D-01
     13  0.228424D-02 -0.171973D-02  0.110012D-01 -0.456936D-01 -0.246405D-01
     14 -0.379291D-02 -0.379309D-02 -0.401211D-02 -0.401287D-02  0.169118D-01
     15 -0.435065D-02 -0.379284D-02  0.326932D-02 -0.401216D-02 -0.596760D-02
     16 -0.379312D-02 -0.435064D-02 -0.401287D-02  0.326930D-02 -0.596718D-02
     17  0.635128D-02  0.113636D-03  0.759870D-03  0.358525D-02 -0.472017D-02
     18  0.113682D-03  0.634871D-02  0.358521D-02  0.759981D-03 -0.472048D-02
     19  0.634873D-02  0.635124D-02  0.759988D-03  0.759914D-03  0.409791D-02
     20 -0.210483D-02  0.210447D-02 -0.568103D-02  0.567986D-02  0.118108D-05
     21  0.418580D-03 -0.293897D-02 -0.522079D-02  0.475976D-02  0.147165D-02
     22  0.293861D-02 -0.415557D-03 -0.476092D-02  0.522001D-02 -0.146918D-02
     23 -0.293899D-02  0.252178D-02  0.475980D-02  0.460160D-03  0.751884D-02
     24 -0.415572D-03 -0.252166D-02  0.522004D-02 -0.459938D-03  0.898931D-02
     25  0.210446D-02  0.175885D-05  0.567991D-02  0.000000D+00  0.604848D-02
     26 -0.252166D-02  0.293860D-02 -0.459976D-03 -0.476093D-02 -0.751925D-02
     27  0.175637D-05 -0.210484D-02  0.000000D+00 -0.568103D-02 -0.604878D-02
     28  0.252178D-02  0.418571D-03  0.460137D-03 -0.522078D-02 -0.898960D-02
               11            12            13            14            15 
     11  0.523676D-01
     12 -0.456936D-01  0.133408D+00
     13 -0.456912D-01 -0.246406D-01  0.133408D+00
     14  0.326930D-02 -0.596755D-02 -0.596713D-02  0.991550D-01
     15 -0.401289D-02 -0.596718D-02  0.169120D-01 -0.183746D-01  0.991552D-01
     16 -0.401220D-02  0.169119D-01 -0.596747D-02 -0.183746D-01 -0.183747D-01
     17  0.760012D-03  0.409791D-02 -0.472061D-02 -0.401799D-01 -0.401795D-01
     18  0.759924D-03 -0.472023D-02  0.409787D-02 -0.401795D-01  0.133684D-01
     19  0.358527D-02 -0.472051D-02 -0.472033D-02  0.133684D-01 -0.401799D-01
     20  0.000000D+00 -0.604881D-02  0.604855D-02  0.000000D+00 -0.259143D-02
     21  0.460160D-03 -0.898962D-02  0.751888D-02  0.404936D-02  0.145855D-02
     22 -0.459942D-03 -0.751926D-02  0.898932D-02 -0.404996D-02  0.550796D-02
     23 -0.522078D-02  0.147166D-02 -0.898964D-02  0.145853D-02 -0.550790D-02
     24 -0.476091D-02 -0.146914D-02 -0.751932D-02  0.550793D-02 -0.145792D-02
     25 -0.568101D-02  0.121220D-05 -0.604887D-02 -0.259140D-02  0.259149D-02
     26  0.522000D-02  0.898931D-02 -0.146912D-02 -0.145792D-02 -0.404999D-02
     27  0.567987D-02  0.604851D-02  0.120628D-05  0.259148D-02  0.000000D+00
     28  0.475977D-02  0.751886D-02  0.147165D-02 -0.550785D-02  0.404941D-02
               16            17            18            19            20 
     16  0.991551D-01
     17  0.133684D-01  0.532271D-01
     18 -0.401799D-01  0.934291D-02  0.532271D-01
     19 -0.401794D-01  0.934290D-02  0.934289D-02  0.532271D-01
     20  0.259152D-02 -0.698657D-02  0.698643D-02  0.000000D+00  0.141831D-01
     21 -0.550785D-02  0.587728D-02  0.554650D-03 -0.643199D-02  0.350821D-02
     22 -0.145791D-02 -0.554519D-03 -0.587744D-02  0.643186D-02  0.350837D-02
     23  0.404941D-02 -0.643196D-02  0.587727D-02  0.554648D-03  0.390784D-02
     24 -0.404997D-02  0.643189D-02 -0.554505D-03 -0.587743D-02 -0.676708D-02
     25  0.000000D+00  0.000000D+00 -0.698660D-02  0.698643D-02 -0.676691D-02
     26  0.550794D-02 -0.587743D-02  0.643189D-02 -0.554492D-03  0.390804D-02
     27 -0.259144D-02  0.698642D-02  0.000000D+00 -0.698657D-02 -0.676688D-02
     28  0.145851D-02  0.554623D-03 -0.643198D-02  0.587729D-02 -0.676671D-02
               21            22            23            24            25 
     21  0.147643D-01
     22  0.379896D-02  0.147646D-01
     23 -0.705748D-02 -0.734823D-02  0.147643D-01
     24  0.419859D-02 -0.705765D-02  0.379897D-02  0.147646D-01
     25 -0.676673D-02  0.390801D-02  0.350821D-02  0.350840D-02  0.141831D-01
     26 -0.734821D-02 -0.705763D-02  0.419860D-02 -0.705765D-02 -0.676707D-02
     27  0.390786D-02 -0.676705D-02 -0.676672D-02  0.390802D-02 -0.676688D-02
     28 -0.705746D-02  0.419861D-02 -0.705747D-02 -0.734822D-02  0.390786D-02
               26            27            28 
     26  0.147646D-01
     27  0.350837D-02  0.141831D-01
     28  0.379895D-02  0.350820D-02  0.147643D-01
 Leave Link  716 at Thu Feb 26 00:45:15 2015, MaxMem= 1073741824 cpu:       0.2
 (Enter /apps/gaussian/g09_c01/g09/l9999.exe)
 1\1\GINC-CX1-1-9-2\Freq\RCAM-B3LYP\Aug-CC-pVDZ\C1H6N1(1+)\JMF02\26-Feb
 -2015\0\\#p opt(VeryTight,CalcAll,Raman) Integral(Grid=UltraFine) CAM-
 b3lyp/AUG-cc-pVDZ\\Autjob by noodles.sh | Great noodly basis sets\\1,1
 \C,-0.0000000526,0.0000000526,-0.7963303629\H,-0.0961383333,-1.0330857
 383,-1.1394523031\H,-0.8466094515,0.5998011415,-1.1394523031\H,0.94274
 7627,0.4332847547,-1.1394523031\N,-0.0000000526,0.0000000526,0.7079222
 769\H,0.0883706418,0.9497195904,1.0845546978\H,-0.866666646,-0.3983284
 499,1.0845546978\H,0.7782958463,-0.5513909826,1.0845546978\\Version=EM
 64L-G09RevC.01\State=1-A\HF=-96.1683264\RMSD=4.675e-09\RMSF=4.736e-08\
 ZeroPoint=0.0793431\Thermal=0.0827991\Dipole=0.,0.,0.8602516\DipoleDer
 iv=0.0831226,0.0000037,0.0000025,-0.0000006,0.0831249,0.0000028,-0.000
 0052,0.0000002,0.5447635,0.122837,-0.0078547,0.0008419,-0.0078508,0.03
 91861,0.0090319,0.0035696,0.038331,0.055022,0.0668993,0.0401468,0.0074
 008,0.0401489,0.0951217,-0.0052448,0.0314122,-0.0222576,0.0550229,0.05
 32981,-0.0322973,-0.0082443,-0.0322946,0.1087254,-0.0037889,-0.0349789
 ,-0.0160744,0.0550239,-0.1595581,0.0000025,0.0000029,-0.0000011,-0.159
 5614,0.0000011,-0.0000028,-0.0000003,-0.4087399,0.2496029,0.005292,0.0
 043793,0.0052937,0.3059989,0.0470645,0.0033562,0.0360583,0.232968,0.29
 64835,0.0217723,-0.0429494,0.0217739,0.2591188,-0.0197399,-0.0329044,-
 0.0151222,0.2329683,0.2873156,-0.0270665,0.0385691,-0.0270661,0.268286
 1,-0.0273248,0.0295494,-0.0209351,0.2329681\Polar=19.404421,-0.0000022
 ,19.4044068,0.0000281,-0.0000076,22.294929\PolarDeriv=-0.8959687,-3.13
 54025,0.8958358,2.2070601,-0.0000052,-0.0001035,-3.1355492,0.8959195,3
 .1353681,0.000208,2.2070627,0.0002303,2.4604315,0.0003279,2.4602911,-0
 .000075,0.0002642,-3.6464549,-0.2074965,-0.6383638,-0.4558038,-0.81980
 57,-0.1093344,-0.218038,-1.0195478,-0.4205633,-6.1092613,-0.1095208,-1
 .9837212,-2.3431831,-0.7784946,-0.0809353,-1.6392479,-0.1390384,-1.493
 9476,-1.4803918,-3.9528417,1.8773659,-1.8891622,-1.598073,0.5587454,-1
 .9201493,2.0986198,-1.576617,2.0404279,0.5586425,-1.2055274,1.3603998,
 -1.3543053,0.4132324,-1.063898,-1.2242641,0.8674238,-1.480445,4.977548
 2,1.6207186,1.5278382,-1.7874866,-0.44913,2.1381732,1.78077,1.1800829,
 1.2090822,-0.4493605,-1.0161045,0.9827489,-1.4942308,-0.3323373,-0.923
 8329,1.3633156,0.626458,-1.4804359,0.6189372,2.1662345,-0.6188138,-2.1
 781882,-0.0000555,0.0000012,2.1662792,-0.6189296,-2.1664275,-0.0001042
 ,-2.1781824,-0.0001029,-1.9103853,-0.0003262,-1.9105152,0.0000498,-0.0
 002256,2.5186163,0.1947133,0.6401589,0.3183933,0.7596808,0.1185918,0.2
 217744,0.8567793,0.2983389,4.657809,0.1186586,2.0246524,2.3835605,0.58
 07997,0.0835655,1.4706197,0.1396804,1.5009329,1.8563151,-3.8554894,-1.
 1629309,-1.1769093,1.8111261,0.4883493,-2.1751195,-1.2538591,-0.979168
 2,-1.0590825,0.4884753,0.9731251,-0.9997123,1.3204563,0.343544,0.73094
 55,-1.3696859,-0.6294212,1.8563738,3.1205041,-1.367708,1.3986346,1.605
 6898,-0.607145,1.9534388,-1.4934345,1.2210559,-1.7081278,-0.6070109,1.
 1786933,-1.3839606,1.1758601,-0.427045,0.8755737,1.2300246,-0.8714825,
 1.8564698\HyperPolar=0.4931254,1.7394112,-0.4982746,-1.7383708,-3.1851
 048,0.000989,-3.18386,-0.0011518,0.00113,4.5567332\PG=C03 [C3(C1N1),X(
 H6)]\NImag=0\\0.63807356,0.00000015,0.63807329,0.00000015,0.00000021,0
 .42652885,-0.05215582,-0.02470903,-0.00804728,0.04755826,-0.02470806,-
 0.31536982,-0.08643925,0.02619593,0.32661722,-0.00655643,-0.07042130,-
 0.07229925,0.00819922,0.08807584,0.08760503,-0.22816817,0.12632906,-0.
 07083500,0.00440518,-0.00346633,0.00262735,0.23416614,0.12632942,-0.13
 935780,0.05018875,0.02238115,-0.01182631,0.00958608,-0.13393404,0.1400
 0934,-0.05770832,0.04088854,-0.07229924,0.00898588,-0.00424880,0.00490
 959,0.07217631,-0.05113866,0.08760503,-0.27096461,-0.10162090,0.078882
 08,0.00042193,0.00116659,-0.00081337,-0.01595879,-0.01062400,0.0069881
 1,0.27953882,-0.10162053,-0.09656108,0.03625035,-0.02468088,-0.0078430
 5,0.00990640,0.01522347,0.00853767,-0.00706839,0.10773811,0.09463666,0
 .06426456,0.02953243,-0.07229893,-0.00961546,-0.00251768,0.00490959,-0
 .00817251,-0.00565760,0.00490959,-0.08037553,-0.03693719,0.08760503,-0
 .09704126,0.00000036,0.00000041,-0.00079259,0.00072437,-0.00346125,0.0
 0436785,-0.00370395,-0.03048311,0.00562279,0.00297934,0.03394418,0.728
 72303,-0.00000027,-0.09704085,0.00000033,0.00072459,0.00692446,-0.0371
 9729,-0.00370374,0.00176410,0.02159612,0.00297938,0.00050926,0.0156011
 2,-0.00000011,0.72872289,0.00000030,0.00000038,-0.17523905,0.00041259,
 0.00443278,-0.02075386,0.00363253,-0.00257372,-0.02075373,-0.00404536,
 -0.00185926,-0.02075350,0.00000029,0.00000007,0.53828791,0.00012339,0.
 00061843,-0.00017962,0.00040549,0.00004243,0.00018033,-0.00025719,-0.0
 0053070,-0.00072431,-0.00012087,0.00067646,0.00082594,-0.06415568,-0.0
 2805502,-0.01050680,0.05894708,0.00061851,0.00671418,-0.00193095,0.000
 04248,0.00085801,0.00193848,-0.00004997,0.00065577,0.00061799,0.000195
 78,0.00051932,0.00047356,-0.02805494,-0.36309743,-0.11293630,0.0302555
 6,0.38133086,-0.00308260,-0.03312757,-0.01146451,0.00018822,0.00202142
 ,-0.00660643,-0.00077873,0.00005107,0.00111760,0.00077494,-0.00009337,
 0.00111763,-0.01104167,-0.11868585,-0.10026265,0.01136012,0.12211097,0
 .10512274,0.00560219,0.00254456,0.00176199,0.00017610,0.00030013,-0.00
 017304,0.00073696,0.00029949,-0.00082308,0.00078165,0.00017469,-0.0017
 6894,-0.31265846,-0.11541807,0.10305905,-0.00007543,0.00033723,-0.0007
 8164,0.32693700,0.00254465,0.00123549,0.00080985,0.00078086,0.00022248
 ,-0.00093627,-0.00018119,-0.00033852,0.00047850,0.00017474,0.00048186,
 -0.00081307,-0.11541815,-0.11459478,0.04736894,-0.03109084,-0.01088603
 ,0.01405460,0.12446849,0.11334094,0.03023065,0.01389433,-0.01146430,0.
 00034514,-0.00069994,0.00111760,-0.00030661,0.00071780,0.00111763,-0.0
 0184471,-0.00084770,-0.00660643,0.10830555,0.04978050,-0.10026272,-0.0
 1351811,-0.00392338,0.00548785,-0.11143126,-0.05121734,0.10512274,0.00
 453083,-0.00316317,-0.00158245,-0.00001842,-0.00025493,-0.00000285,0.0
 0070811,-0.00021720,0.00158861,0.00067897,-0.00049052,0.00089735,-0.26
 406573,0.14347316,-0.09255231,0.00513333,-0.00334451,0.00336131,-0.021
 50008,0.01872132,-0.01178082,0.27453283,-0.00316315,0.00230675,0.00112
 098,-0.00073561,0.00041687,-0.00095206,-0.00021715,0.00055539,-0.00112
 541,-0.00000980,-0.00028039,0.00031827,0.14347310,-0.16318756,0.065567
 34,0.02808357,-0.01609479,0.01366872,-0.01270676,0.01053862,-0.0077042
 2,-0.15472405,0.16574511,-0.02714808,0.01923328,-0.01146432,-0.0004683
 2,-0.00062443,0.00111763,0.00165649,-0.00117372,-0.00660643,0.00043359
 ,0.00064887,0.00111760,-0.09726404,0.06890521,-0.10026274,0.01256246,-
 0.00635037,0.00548785,0.01015681,-0.00974534,0.00548785,0.10007115,-0.
 07089364,0.10512274\\0.,0.,0.,-0.00000009,0.,0.,0.00000005,0.00000007,
 0.,0.00000004,-0.00000008,0.,0.,0.,0.,0.00000010,-0.00000001,0.,-0.000
 00004,0.00000009,0.,-0.00000006,-0.00000008,0.\\\@


 WE LEARN WISDOM FROM FAILURE MUCH MORE THAN FROM SUCCESS.
 WE DISCOVER WHAT WILL DO BY FINDING OUT WHAT WILL NOT DO...
 AND HE WHO NEVER MADE A MISTAKE NEVER MADE A DISCOVERY
 Job cpu time:  0 days  0 hours 21 minutes 36.4 seconds.
 File lengths (MBytes):  RWF=     12 Int=      0 D2E=      0 Chk=      2 Scr=      1
 Normal termination of Gaussian 09 at Thu Feb 26 00:45:15 2015.
