 Entering Gaussian System, Link 0=g03
 Input=MA_CAM-b3lyp_AUG-cc-pVTZ.com
 Output=MA_CAM-b3lyp_AUG-cc-pVTZ.log
 Initial command:
 /apps/gaussian/g09_c01/g09/l1.exe /tmp/pbs.8910298.cx1b/Gau-21673.inp -scrdir=/tmp/pbs.8910298.cx1b/
 Entering Link 1 = /apps/gaussian/g09_c01/g09/l1.exe PID=     21680.
  
 Copyright (c) 1988,1990,1992,1993,1995,1998,2003,2009,2011,
            Gaussian, Inc.  All Rights Reserved.
  
 This is part of the Gaussian(R) 09 program.  It is based on
 the Gaussian(R) 03 system (copyright 2003, Gaussian, Inc.),
 the Gaussian(R) 98 system (copyright 1998, Gaussian, Inc.),
 the Gaussian(R) 94 system (copyright 1995, Gaussian, Inc.),
 the Gaussian 92(TM) system (copyright 1992, Gaussian, Inc.),
 the Gaussian 90(TM) system (copyright 1990, Gaussian, Inc.),
 the Gaussian 88(TM) system (copyright 1988, Gaussian, Inc.),
 the Gaussian 86(TM) system (copyright 1986, Carnegie Mellon
 University), and the Gaussian 82(TM) system (copyright 1983,
 Carnegie Mellon University). Gaussian is a federally registered
 trademark of Gaussian, Inc.
  
 This software contains proprietary and confidential information,
 including trade secrets, belonging to Gaussian, Inc.
  
 This software is provided under written license and may be
 used, copied, transmitted, or stored only in accord with that
 written license.
  
 The following legend is applicable only to US Government
 contracts under FAR:
  
                    RESTRICTED RIGHTS LEGEND
  
 Use, reproduction and disclosure by the US Government is
 subject to restrictions as set forth in subparagraphs (a)
 and (c) of the Commercial Computer Software - Restricted
 Rights clause in FAR 52.227-19.
  
 Gaussian, Inc.
 340 Quinnipiac St., Bldg. 40, Wallingford CT 06492
  
  
 ---------------------------------------------------------------
 Warning -- This program may not be used in any manner that
 competes with the business of Gaussian, Inc. or will provide
 assistance to any competitor of Gaussian, Inc.  The licensee
 of this program is prohibited from giving any competitor of
 Gaussian, Inc. access to this program.  By using this program,
 the user acknowledges that Gaussian, Inc. is engaged in the
 business of creating and licensing software in the field of
 computational chemistry and represents and warrants to the
 licensee that it is not a competitor of Gaussian, Inc. and that
 it will not use this program in any manner prohibited above.
 ---------------------------------------------------------------
  

 Cite this work as:
 Gaussian 09, Revision C.01,
 M. J. Frisch, G. W. Trucks, H. B. Schlegel, G. E. Scuseria, 
 M. A. Robb, J. R. Cheeseman, G. Scalmani, V. Barone, B. Mennucci, 
 G. A. Petersson, H. Nakatsuji, M. Caricato, X. Li, H. P. Hratchian, 
 A. F. Izmaylov, J. Bloino, G. Zheng, J. L. Sonnenberg, M. Hada, 
 M. Ehara, K. Toyota, R. Fukuda, J. Hasegawa, M. Ishida, T. Nakajima, 
 Y. Honda, O. Kitao, H. Nakai, T. Vreven, J. A. Montgomery, Jr., 
 J. E. Peralta, F. Ogliaro, M. Bearpark, J. J. Heyd, E. Brothers, 
 K. N. Kudin, V. N. Staroverov, T. Keith, R. Kobayashi, J. Normand, 
 K. Raghavachari, A. Rendell, J. C. Burant, S. S. Iyengar, J. Tomasi, 
 M. Cossi, N. Rega, J. M. Millam, M. Klene, J. E. Knox, J. B. Cross, 
 V. Bakken, C. Adamo, J. Jaramillo, R. Gomperts, R. E. Stratmann, 
 O. Yazyev, A. J. Austin, R. Cammi, C. Pomelli, J. W. Ochterski, 
 R. L. Martin, K. Morokuma, V. G. Zakrzewski, G. A. Voth, 
 P. Salvador, J. J. Dannenberg, S. Dapprich, A. D. Daniels, 
 O. Farkas, J. B. Foresman, J. V. Ortiz, J. Cioslowski, 
 and D. J. Fox, Gaussian, Inc., Wallingford CT, 2010.
 
 ******************************************
 Gaussian 09:  EM64L-G09RevC.01 23-Sep-2011
                26-Feb-2015 
 ******************************************
 %Chk=MA_CAM-b3lyp_AUG-cc-pVTZ.chk
 %Mem=8Gb
 %nproc=8
 Will use up to    8 processors via shared memory.
 ----------------------------------------------------------------------
 #p opt(VeryTight,CalcAll,Raman) Integral(Grid=UltraFine) CAM-b3lyp/AUG
 -cc-pVTZ
 ----------------------------------------------------------------------
 1/7=1,10=4,14=-1,18=20,19=15,26=3,38=1/1,3;
 2/9=110,12=2,17=6,18=5,40=1/2;
 3/5=16,6=1,7=10,11=2,16=1,25=1,30=1,71=2,74=-40,75=-5/1,2,3;
 4//1;
 5/5=2,38=5/2;
 8/6=4,10=90,11=11/1;
 10/13=10,15=4/2;
 11/6=3,8=1,9=11,15=111,16=1/1,2,10;
 10/6=1/2;
 6/7=2,8=2,9=2,10=2,18=1,28=1/1;
 7/10=1,25=1/1,2,3,16;
 1/7=1,10=4,14=-1,18=20,19=15/3(3);
 2/9=110/2;
 7/8=1,9=1,25=1,44=-1/16;
 99//99;
 2/9=110/2;
 3/5=16,6=1,7=10,11=2,16=1,25=1,30=1,71=2,74=-40,75=-5/1,2,3;
 4/5=5,16=3/1;
 5/5=2,38=5/2;
 8/6=4,10=90,11=11/1;
 10/13=10,15=4/2;
 11/6=3,8=1,9=11,15=111,16=1/1,2,10;
 10/6=1/2;
 7/10=1,25=1/1,2,3,16;
 1/7=1,10=4,14=-1,18=20,19=15/3(-9);
 2/9=110/2;
 6/7=2,8=2,9=2,10=2,18=1,19=2,28=1/1;
 7/8=1,9=1,25=1,44=-1/16;
 99//99;
 Leave Link    1 at Thu Feb 26 00:45:34 2015, MaxMem= 1073741824 cpu:       0.2
 (Enter /apps/gaussian/g09_c01/g09/l101.exe)
 ----------------------------------------------
 Autjob by noodles.sh | Great noodly basis sets
 ----------------------------------------------
 Charge =  1 Multiplicity = 1
 Symbolic Z-Matrix:
 C                     0.        0.       -0.80446 
 H                    -0.09587  -1.03096  -1.1445 
 H                    -0.8449    0.59851  -1.1445 
 H                     0.94078   0.43245  -1.1445 
 N                     0.        0.        0.71256 
 H                     0.08865   0.95193   1.09076 
 H                    -0.86872  -0.39919   1.09076 
 H                     0.78007  -0.55274   1.09076 
 
 NAtoms=      8 NQM=        0 NQMF=       0 NMMI=      8 NMMIF=      0
                NMic=       0 NMicF=      0.
                    Isotopes and Nuclear Properties:
 (Nuclear quadrupole moments (NQMom) in fm**2, nuclear magnetic moments (NMagM)
  in nuclear magnetons)

  Atom         1           2           3           4           5           6           7           8
 IAtWgt=          12           1           1           1          14           1           1           1
 AtmWgt=  12.0000000   1.0078250   1.0078250   1.0078250  14.0030740   1.0078250   1.0078250   1.0078250
 NucSpn=           0           1           1           1           2           1           1           1
 AtZEff=   0.0000000   0.0000000   0.0000000   0.0000000   0.0000000   0.0000000   0.0000000   0.0000000
 NQMom=    0.0000000   0.0000000   0.0000000   0.0000000   2.0440000   0.0000000   0.0000000   0.0000000
 NMagM=    0.0000000   2.7928460   2.7928460   2.7928460   0.4037610   2.7928460   2.7928460   2.7928460
 Leave Link  101 at Thu Feb 26 00:45:35 2015, MaxMem= 1073741824 cpu:       1.0
 (Enter /apps/gaussian/g09_c01/g09/l103.exe)

 GradGradGradGradGradGradGradGradGradGradGradGradGradGradGradGradGradGrad
 Berny optimization.
 Initialization pass.
                           ----------------------------
                           !    Initial Parameters    !
                           ! (Angstroms and Degrees)  !
 --------------------------                            --------------------------
 ! Name  Definition              Value          Derivative Info.                !
 --------------------------------------------------------------------------------
 ! R1    R(1,2)                  1.0898         calculate D2E/DX2 analytically  !
 ! R2    R(1,3)                  1.0898         calculate D2E/DX2 analytically  !
 ! R3    R(1,4)                  1.0898         calculate D2E/DX2 analytically  !
 ! R4    R(1,5)                  1.517          calculate D2E/DX2 analytically  !
 ! R5    R(5,6)                  1.0281         calculate D2E/DX2 analytically  !
 ! R6    R(5,7)                  1.0281         calculate D2E/DX2 analytically  !
 ! R7    R(5,8)                  1.0281         calculate D2E/DX2 analytically  !
 ! A1    A(2,1,3)              110.7303         calculate D2E/DX2 analytically  !
 ! A2    A(2,1,4)              110.7304         calculate D2E/DX2 analytically  !
 ! A3    A(2,1,5)              108.1807         calculate D2E/DX2 analytically  !
 ! A4    A(3,1,4)              110.7303         calculate D2E/DX2 analytically  !
 ! A5    A(3,1,5)              108.1807         calculate D2E/DX2 analytically  !
 ! A6    A(4,1,5)              108.1807         calculate D2E/DX2 analytically  !
 ! A7    A(1,5,6)              111.5829         calculate D2E/DX2 analytically  !
 ! A8    A(1,5,7)              111.583          calculate D2E/DX2 analytically  !
 ! A9    A(1,5,8)              111.583          calculate D2E/DX2 analytically  !
 ! A10   A(6,5,7)              107.2794         calculate D2E/DX2 analytically  !
 ! A11   A(6,5,8)              107.2794         calculate D2E/DX2 analytically  !
 ! A12   A(7,5,8)              107.2794         calculate D2E/DX2 analytically  !
 ! D1    D(2,1,5,6)            179.9926         calculate D2E/DX2 analytically  !
 ! D2    D(2,1,5,7)            -60.0075         calculate D2E/DX2 analytically  !
 ! D3    D(2,1,5,8)             59.9926         calculate D2E/DX2 analytically  !
 ! D4    D(3,1,5,6)            -60.0075         calculate D2E/DX2 analytically  !
 ! D5    D(3,1,5,7)             59.9925         calculate D2E/DX2 analytically  !
 ! D6    D(3,1,5,8)            179.9926         calculate D2E/DX2 analytically  !
 ! D7    D(4,1,5,6)             59.9925         calculate D2E/DX2 analytically  !
 ! D8    D(4,1,5,7)            179.9925         calculate D2E/DX2 analytically  !
 ! D9    D(4,1,5,8)            -60.0075         calculate D2E/DX2 analytically  !
 --------------------------------------------------------------------------------
 Trust Radius=3.00D-01 FncErr=1.00D-07 GrdErr=1.00D-06
 Number of steps in this run=     38 maximum allowed number of steps=    100.
 GradGradGradGradGradGradGradGradGradGradGradGradGradGradGradGradGradGrad

 Leave Link  103 at Thu Feb 26 00:45:35 2015, MaxMem= 1073741824 cpu:       0.0
 (Enter /apps/gaussian/g09_c01/g09/l202.exe)
                          Input orientation:                          
 ---------------------------------------------------------------------
 Center     Atomic      Atomic             Coordinates (Angstroms)
 Number     Number       Type             X           Y           Z
 ---------------------------------------------------------------------
      1          6           0        0.000000    0.000000   -0.804455
      2          1           0       -0.095874   -1.030964   -1.144495
      3          1           0       -0.844904    0.598511   -1.144495
      4          1           0        0.940777    0.432453   -1.144495
      5          7           0        0.000000    0.000000    0.712562
      6          1           0        0.088649    0.951929    1.090759
      7          1           0       -0.868719   -0.399192    1.090759
      8          1           0        0.780070   -0.552736    1.090759
 ---------------------------------------------------------------------
                    Distance matrix (angstroms):
                    1          2          3          4          5
     1  C    0.000000
     2  H    1.089819   0.000000
     3  H    1.089819   1.793386   0.000000
     4  H    1.089818   1.793386   1.793386   0.000000
     5  N    1.517017   2.126203   2.126203   2.126203   0.000000
     6  H    2.122702   2.993706   2.448017   2.447925   1.028134
     7  H    2.122702   2.448017   2.447925   2.993705   1.028134
     8  H    2.122702   2.447926   2.993705   2.448016   1.028134
                    6          7          8
     6  H    0.000000
     7  H    1.655923   0.000000
     8  H    1.655923   1.655923   0.000000
 Stoichiometry    CH6N(1+)
 Framework group  C3[C3(CN),X(H6)]
 Deg. of freedom     6
 Full point group                 C3      NOp   3
 Largest Abelian subgroup         C1      NOp   1
 Largest concise Abelian subgroup C1      NOp   1
                         Standard orientation:                         
 ---------------------------------------------------------------------
 Center     Atomic      Atomic             Coordinates (Angstroms)
 Number     Number       Type             X           Y           Z
 ---------------------------------------------------------------------
      1          6           0        0.000000    0.000000   -0.804455
      2          1           0        1.030964   -0.095874   -1.144495
      3          1           0       -0.598511   -0.844904   -1.144495
      4          1           0       -0.432453    0.940778   -1.144495
      5          7           0        0.000000    0.000000    0.712562
      6          1           0       -0.951929    0.088649    1.090759
      7          1           0        0.399192   -0.868719    1.090759
      8          1           0        0.552737    0.780070    1.090759
 ---------------------------------------------------------------------
 Rotational constants (GHZ):     84.1605103     19.8694623     19.8694623
 Leave Link  202 at Thu Feb 26 00:45:35 2015, MaxMem= 1073741824 cpu:       0.0
 (Enter /apps/gaussian/g09_c01/g09/l301.exe)
 Standard basis: Aug-CC-pVTZ (5D, 7F)
 Ernie: Thresh=  0.10000D-02 Tol=  0.10000D-05 Strict=F.
 Ernie:  6 primitive shells out of 126 were deleted.
 There are   230 symmetry adapted basis functions of A   symmetry.
 Integral buffers will be    131072 words long.
 Raffenetti 2 integral format.
 Two-electron integral symmetry is turned on.
   230 basis functions,   306 primitive gaussians,   260 cartesian basis functions
     9 alpha electrons        9 beta electrons
       nuclear repulsion energy        47.5846100594 Hartrees.
 IExCor=20419 DFT=T Ex+Corr=CAM-B3LYP ExCW=0 ScaHFX=  1.000000
 ScaDFX=  1.000000  1.000000  1.000000  0.810000 ScalE2=  1.000000  1.000000
 IRadAn=      5 IRanWt=     -1 IRanGd=            0 ICorTp=0
  HFx wShort=  0.000000 wLong=  0.330000 cFull=  0.190000 cShort=  0.000000 cLong=  0.460000
  DFx wShort=  0.000000 wLong=  0.330000 cFull=  0.190000 cShort=  0.000000 cLong=  0.460000
 NAtoms=    8 NActive=    8 NUniq=    4 SFac= 4.00D+00 NAtFMM=   60 NAOKFM=F Big=F
 Leave Link  301 at Thu Feb 26 00:45:35 2015, MaxMem= 1073741824 cpu:       0.3
 (Enter /apps/gaussian/g09_c01/g09/l302.exe)
 NPDir=0 NMtPBC=     1 NCelOv=     1 NCel=       1 NClECP=     1 NCelD=      1
         NCelK=      1 NCelE2=     1 NClLst=     1 CellRange=     0.0.
 One-electron integrals computed using PRISM.
 NBasis=   230 RedAO= T  NBF=   230
 NBsUse=   230 1.00D-06 NBFU=   230
 Precomputing XC quadrature grid using
 IXCGrd= 2 IRadAn=           5 IRanWt=          -1 IRanGd=           0 AccXCQ= 0.00D+00.
 NRdTot=     686 NPtTot=      184910 NUsed=      189829 NTot=      189861
 NSgBfM=   260   260   260   260   260 NAtAll=     8     8.
 Leave Link  302 at Thu Feb 26 00:45:35 2015, MaxMem= 1073741824 cpu:       1.8
 (Enter /apps/gaussian/g09_c01/g09/l303.exe)
 DipDrv:  MaxL=1.
 Leave Link  303 at Thu Feb 26 00:45:35 2015, MaxMem= 1073741824 cpu:       0.2
 (Enter /apps/gaussian/g09_c01/g09/l401.exe)
 Harris functional with IExCor=20419 diagonalized for initial guess.
 ExpMin= 2.53D-02 ExpMax= 1.14D+04 ExpMxC= 3.89D+02 IAcc=3 IRadAn=         5 AccDes= 0.00D+00
 HarFok:  IExCor=20419 AccDes= 0.00D+00 IRadAn=         5 IDoV= 1
 ScaDFX=  1.000000  1.000000  1.000000  1.000000
 FoFCou: FMM=F IPFlag=           0 FMFlag=      100000 FMFlg1=           0
         NFxFlg=           0 DoJE=T BraDBF=F KetDBF=T FulRan=T
         Omega=  0.000000  0.000000  1.000000  0.000000  0.000000 ICntrl=     500 IOpCl=  0
         NMat0=    1 NMatS0=    1 NMatT0=    0 NMatD0=    1 NMtDS0=    0 NMtDT0=    0
         I1Cent=           4 NGrid=           0.
 Petite list used in FoFCou.
 DSYEVD returned Info=       26968 IAlg= 4 N=   230 NDim=   230 NE2=     4667847 trying DSYEV.
 Harris En= -92.2542085759331    
 Initial guess orbital symmetries:
       Occupied  (A) (A) (A) (A) (E) (E) (A) (E) (E)
       Virtual   (A) (A) (E) (E) (E) (E) (A) (A) (E) (E) (A) (E)
                 (E) (E) (E) (A) (A) (E) (E) (E) (E) (A) (E) (E)
                 (A) (A) (A) (E) (E) (A) (E) (E) (A) (A) (E) (E)
                 (E) (E) (A) (E) (E) (A) (E) (E) (E) (E) (E) (E)
                 (A) (A) (A) (E) (E) (E) (E) (A) (A) (E) (E) (A)
                 (E) (E) (A) (A) (E) (E) (A) (E) (E) (A) (E) (E)
                 (E) (E) (A) (E) (E) (A) (E) (E) (E) (E) (E) (E)
                 (A) (E) (E) (A) (A) (E) (E) (A) (E) (E) (E) (E)
                 (A) (E) (E) (A) (A) (E) (E) (A) (A) (E) (E) (A)
                 (E) (E) (A) (E) (E) (A) (E) (E) (A) (E) (E) (A)
                 (E) (E) (E) (E) (A) (E) (E) (A) (E) (E) (A) (A)
                 (E) (E) (A) (A) (E) (E) (A) (E) (E) (A) (E) (E)
                 (E) (E) (A) (A) (E) (E) (E) (E) (A) (E) (E) (A)
                 (E) (E) (A) (E) (E) (A) (E) (E) (A) (E) (E) (A)
                 (A) (E) (E) (A) (E) (E) (E) (E) (E) (E) (A) (A)
                 (E) (E) (A) (E) (E) (E) (E) (A) (A) (E) (E) (A)
                 (A) (E) (E) (A) (E) (E) (E) (E) (A) (A) (E) (E)
                 (A) (E) (E) (A) (E) (E) (A) (E) (E) (A) (A) (E)
                 (E) (E) (E) (A) (A)
 The electronic state of the initial guess is 1-A.
 Leave Link  401 at Thu Feb 26 00:45:35 2015, MaxMem= 1073741824 cpu:       4.9
 (Enter /apps/gaussian/g09_c01/g09/l502.exe)
 Closed shell SCF:
 Requested convergence on RMS density matrix=1.00D-08 within 128 cycles.
 Requested convergence on MAX density matrix=1.00D-06.
 Requested convergence on             energy=1.00D-06.
 No special actions if energy rises.
 Using DIIS extrapolation, IDIIS=  1040.
 Integral symmetry usage will be decided dynamically.
       189744 words used for storage of precomputed grid.
 IEnd=      414822 IEndB=      414822 NGot=  1073741824 MDV=  1073411503
 LenX=  1073411503 LenY=  1073343462
 Fock matrices will be formed incrementally for  20 cycles.

 Cycle   1  Pass 1  IDiag  1:
 FoFJK:  IHMeth= 1 ICntrl=     0 DoSepK=T KAlg= 1 I1Cent= 0 FoldK=F
 FoFCou: FMM=F IPFlag=           0 FMFlag=      100000 FMFlg1=           0
         NFxFlg=           0 DoJE=T BraDBF=F KetDBF=F FulRan=T
         Omega=  0.000000  0.000000  1.000000  0.000000  0.000000 ICntrl=     500 IOpCl=  0
         NMat0=    1 NMatS0=    1 NMatT0=    0 NMatD0=    1 NMtDS0=    0 NMtDT0=    0
         I1Cent=           0 NGrid=           0.
 Petite list used in FoFCou.
 E= -96.1573094089342    
 DIIS: error= 6.37D-02 at cycle   1 NSaved=   1.
 NSaved= 1 IEnMin= 1 EnMin= -96.1573094089342     IErMin= 1 ErrMin= 6.37D-02
 ErrMax= 6.37D-02 EMaxC= 1.00D-01 BMatC= 1.52D-01 BMatP= 1.52D-01
 IDIUse=3 WtCom= 3.63D-01 WtEn= 6.37D-01
 Coeff-Com:  0.100D+01
 Coeff-En:   0.100D+01
 Coeff:      0.100D+01
 Gap=     0.554 Goal=   None    Shift=    0.000
 DSYEVD returned Info=         461 IAlg= 4 N=   230 NDim=   230 NE2=     4666709 trying DSYEV.
 GapD=    0.554 DampG=2.000 DampE=0.500 DampFc=1.0000 IDamp=-1.
 RMSDP=1.20D-03 MaxDP=8.22D-02              OVMax= 1.13D-01

 Cycle   2  Pass 1  IDiag  1:
 RMSU=  8.49D-04    CP:  1.01D+00
 FoFJK:  IHMeth= 1 ICntrl=     0 DoSepK=T KAlg= 1 I1Cent= 0 FoldK=F
 E= -96.1768504124856     Delta-E=       -0.019541003551 Rises=F Damp=F
 DIIS: error= 1.63D-02 at cycle   2 NSaved=   2.
 NSaved= 2 IEnMin= 2 EnMin= -96.1768504124856     IErMin= 2 ErrMin= 1.63D-02
 ErrMax= 1.63D-02 EMaxC= 1.00D-01 BMatC= 3.15D-02 BMatP= 1.52D-01
 IDIUse=3 WtCom= 8.37D-01 WtEn= 1.63D-01
 Coeff-Com:  0.259D+00 0.741D+00
 Coeff-En:   0.274D+00 0.726D+00
 Coeff:      0.262D+00 0.738D+00
 Gap=     0.526 Goal=   None    Shift=    0.000
 DSYEVD returned Info=         461 IAlg= 4 N=   230 NDim=   230 NE2=     4666709 trying DSYEV.
 RMSDP=4.67D-04 MaxDP=2.49D-02 DE=-1.95D-02 OVMax= 6.39D-02

 Cycle   3  Pass 1  IDiag  1:
 RMSU=  2.97D-04    CP:  1.01D+00  8.31D-01
 FoFJK:  IHMeth= 1 ICntrl=     0 DoSepK=T KAlg= 1 I1Cent= 0 FoldK=F
 E= -96.1926830383093     Delta-E=       -0.015832625824 Rises=F Damp=F
 DIIS: error= 9.13D-03 at cycle   3 NSaved=   3.
 NSaved= 3 IEnMin= 3 EnMin= -96.1926830383093     IErMin= 3 ErrMin= 9.13D-03
 ErrMax= 9.13D-03 EMaxC= 1.00D-01 BMatC= 9.16D-03 BMatP= 3.15D-02
 IDIUse=3 WtCom= 9.09D-01 WtEn= 9.13D-02
 Coeff-Com:  0.194D-01 0.355D+00 0.626D+00
 Coeff-En:   0.000D+00 0.215D+00 0.785D+00
 Coeff:      0.176D-01 0.342D+00 0.640D+00
 Gap=     0.514 Goal=   None    Shift=    0.000
 DSYEVD returned Info=       27026 IAlg= 4 N=   230 NDim=   230 NE2=     4666709 trying DSYEV.
 RMSDP=1.82D-04 MaxDP=1.02D-02 DE=-1.58D-02 OVMax= 2.37D-02

 Cycle   4  Pass 1  IDiag  1:
 RMSU=  6.55D-05    CP:  1.01D+00  8.97D-01  6.82D-01
 FoFJK:  IHMeth= 1 ICntrl=     0 DoSepK=T KAlg= 1 I1Cent= 0 FoldK=F
 E= -96.1993703315769     Delta-E=       -0.006687293268 Rises=F Damp=F
 DIIS: error= 5.20D-04 at cycle   4 NSaved=   4.
 NSaved= 4 IEnMin= 4 EnMin= -96.1993703315769     IErMin= 4 ErrMin= 5.20D-04
 ErrMax= 5.20D-04 EMaxC= 1.00D-01 BMatC= 2.96D-05 BMatP= 9.16D-03
 IDIUse=3 WtCom= 9.95D-01 WtEn= 5.20D-03
 Coeff-Com: -0.388D-03 0.526D-02 0.597D-01 0.935D+00
 Coeff-En:   0.000D+00 0.000D+00 0.000D+00 0.100D+01
 Coeff:     -0.386D-03 0.524D-02 0.593D-01 0.936D+00
 Gap=     0.512 Goal=   None    Shift=    0.000
 DSYEVD returned Info=         461 IAlg= 4 N=   230 NDim=   230 NE2=     4666709 trying DSYEV.
 RMSDP=2.23D-05 MaxDP=1.35D-03 DE=-6.69D-03 OVMax= 1.26D-03

 Cycle   5  Pass 1  IDiag  1:
 RMSU=  1.16D-05    CP:  1.01D+00  9.01D-01  7.09D-01  1.09D+00
 FoFJK:  IHMeth= 1 ICntrl=     0 DoSepK=T KAlg= 1 I1Cent= 0 FoldK=F
 E= -96.1993917111946     Delta-E=       -0.000021379618 Rises=F Damp=F
 DIIS: error= 5.57D-05 at cycle   5 NSaved=   5.
 NSaved= 5 IEnMin= 5 EnMin= -96.1993917111946     IErMin= 5 ErrMin= 5.57D-05
 ErrMax= 5.57D-05 EMaxC= 1.00D-01 BMatC= 6.07D-07 BMatP= 2.96D-05
 IDIUse=1 WtCom= 1.00D+00 WtEn= 0.00D+00
 Coeff-Com: -0.759D-03-0.843D-02-0.232D-02 0.203D+00 0.808D+00
 Coeff:     -0.759D-03-0.843D-02-0.232D-02 0.203D+00 0.808D+00
 Gap=     0.513 Goal=   None    Shift=    0.000
 DSYEVD returned Info=         461 IAlg= 4 N=   230 NDim=   230 NE2=     4666709 trying DSYEV.
 RMSDP=3.85D-06 MaxDP=1.31D-04 DE=-2.14D-05 OVMax= 3.08D-04

 Cycle   6  Pass 1  IDiag  1:
 RMSU=  1.40D-06    CP:  1.01D+00  9.01D-01  7.12D-01  1.12D+00  9.93D-01
 FoFJK:  IHMeth= 1 ICntrl=     0 DoSepK=T KAlg= 1 I1Cent= 0 FoldK=F
 E= -96.1993922542459     Delta-E=       -0.000000543051 Rises=F Damp=F
 DIIS: error= 2.12D-05 at cycle   6 NSaved=   6.
 NSaved= 6 IEnMin= 6 EnMin= -96.1993922542459     IErMin= 6 ErrMin= 2.12D-05
 ErrMax= 2.12D-05 EMaxC= 1.00D-01 BMatC= 7.96D-08 BMatP= 6.07D-07
 IDIUse=1 WtCom= 1.00D+00 WtEn= 0.00D+00
 Coeff-Com: -0.213D-03-0.405D-02-0.604D-02 0.114D-01 0.270D+00 0.729D+00
 Coeff:     -0.213D-03-0.405D-02-0.604D-02 0.114D-01 0.270D+00 0.729D+00
 Gap=     0.513 Goal=   None    Shift=    0.000
 DSYEVD returned Info=         461 IAlg= 4 N=   230 NDim=   230 NE2=     4666709 trying DSYEV.
 RMSDP=1.04D-06 MaxDP=6.88D-05 DE=-5.43D-07 OVMax= 8.76D-05

 Cycle   7  Pass 1  IDiag  1:
 RMSU=  4.69D-07    CP:  1.01D+00  9.01D-01  7.12D-01  1.13D+00  1.03D+00
                    CP:  8.82D-01
 FoFJK:  IHMeth= 1 ICntrl=     0 DoSepK=T KAlg= 1 I1Cent= 0 FoldK=F
 E= -96.1993923304797     Delta-E=       -0.000000076234 Rises=F Damp=F
 DIIS: error= 5.23D-06 at cycle   7 NSaved=   7.
 NSaved= 7 IEnMin= 7 EnMin= -96.1993923304797     IErMin= 7 ErrMin= 5.23D-06
 ErrMax= 5.23D-06 EMaxC= 1.00D-01 BMatC= 2.57D-09 BMatP= 7.96D-08
 IDIUse=1 WtCom= 1.00D+00 WtEn= 0.00D+00
 Coeff-Com:  0.155D-04-0.216D-04-0.664D-03-0.925D-02-0.137D-01 0.133D+00
 Coeff-Com:  0.891D+00
 Coeff:      0.155D-04-0.216D-04-0.664D-03-0.925D-02-0.137D-01 0.133D+00
 Coeff:      0.891D+00
 Gap=     0.513 Goal=   None    Shift=    0.000
 DSYEVD returned Info=         461 IAlg= 4 N=   230 NDim=   230 NE2=     4666709 trying DSYEV.
 RMSDP=2.46D-07 MaxDP=1.43D-05 DE=-7.62D-08 OVMax= 1.80D-05

 Cycle   8  Pass 1  IDiag  1:
 RMSU=  6.40D-08    CP:  1.01D+00  9.01D-01  7.13D-01  1.13D+00  1.04D+00
                    CP:  9.44D-01  9.76D-01
 FoFJK:  IHMeth= 1 ICntrl=     0 DoSepK=T KAlg= 1 I1Cent= 0 FoldK=F
 E= -96.1993923333262     Delta-E=       -0.000000002846 Rises=F Damp=F
 DIIS: error= 5.11D-07 at cycle   8 NSaved=   8.
 NSaved= 8 IEnMin= 8 EnMin= -96.1993923333262     IErMin= 8 ErrMin= 5.11D-07
 ErrMax= 5.11D-07 EMaxC= 1.00D-01 BMatC= 2.54D-11 BMatP= 2.57D-09
 IDIUse=1 WtCom= 1.00D+00 WtEn= 0.00D+00
 Coeff-Com:  0.485D-05 0.933D-04 0.128D-03-0.533D-03-0.870D-02-0.199D-01
 Coeff-Com:  0.137D-01 0.102D+01
 Coeff:      0.485D-05 0.933D-04 0.128D-03-0.533D-03-0.870D-02-0.199D-01
 Coeff:      0.137D-01 0.102D+01
 Gap=     0.513 Goal=   None    Shift=    0.000
 DSYEVD returned Info=         461 IAlg= 4 N=   230 NDim=   230 NE2=     4666709 trying DSYEV.
 RMSDP=3.54D-08 MaxDP=1.62D-06 DE=-2.85D-09 OVMax= 3.62D-06

 Cycle   9  Pass 1  IDiag  1:
 RMSU=  1.25D-08    CP:  1.01D+00  9.01D-01  7.13D-01  1.13D+00  1.04D+00
                    CP:  9.51D-01  9.99D-01  1.13D+00
 FoFJK:  IHMeth= 1 ICntrl=     0 DoSepK=T KAlg= 1 I1Cent= 0 FoldK=F
 E= -96.1993923333695     Delta-E=       -0.000000000043 Rises=F Damp=F
 DIIS: error= 8.07D-08 at cycle   9 NSaved=   9.
 NSaved= 9 IEnMin= 9 EnMin= -96.1993923333695     IErMin= 9 ErrMin= 8.07D-08
 ErrMax= 8.07D-08 EMaxC= 1.00D-01 BMatC= 7.21D-13 BMatP= 2.54D-11
 IDIUse=1 WtCom= 1.00D+00 WtEn= 0.00D+00
 Coeff-Com: -0.435D-06 0.932D-06 0.260D-04 0.287D-03 0.236D-03-0.465D-02
 Coeff-Com: -0.226D-01 0.484D-01 0.978D+00
 Coeff:     -0.435D-06 0.932D-06 0.260D-04 0.287D-03 0.236D-03-0.465D-02
 Coeff:     -0.226D-01 0.484D-01 0.978D+00
 Gap=     0.513 Goal=   None    Shift=    0.000
 DSYEVD returned Info=         461 IAlg= 4 N=   230 NDim=   230 NE2=     4666709 trying DSYEV.
 RMSDP=4.57D-09 MaxDP=1.14D-07 DE=-4.33D-11 OVMax= 2.97D-07

 SCF Done:  E(RCAM-B3LYP) =  -96.1993923334     A.U. after    9 cycles
             Convg  =    0.4566D-08             -V/T =  2.0069
 KE= 9.553548899156D+01 PE=-3.131848241377D+02 EE= 7.386533275334D+01
 Leave Link  502 at Thu Feb 26 00:45:57 2015, MaxMem= 1073741824 cpu:     175.3
 (Enter /apps/gaussian/g09_c01/g09/l801.exe)
 Range of M.O.s used for correlation:     1   230
 NBasis=   230 NAE=     9 NBE=     9 NFC=     0 NFV=     0
 NROrb=    230 NOA=     9 NOB=     9 NVA=   221 NVB=   221

 **** Warning!!: The largest alpha MO coefficient is  0.55985791D+02

 Leave Link  801 at Thu Feb 26 00:45:57 2015, MaxMem= 1073741824 cpu:       0.1
 (Enter /apps/gaussian/g09_c01/g09/l1002.exe)
 Minotr:  Closed shell wavefunction.
          Direct CPHF calculation.
          Differentiating once with respect to electric field.
                with respect to dipole field.
          Electric field/nuclear overlap derivatives assumed to be zero.
          Using symmetry in CPHF.
          Requested convergence is 1.0D-08 RMS, and 1.0D-07 maximum.
          Secondary convergence is 1.0D-12 RMS, and 1.0D-12 maximum.
          NewPWx=F KeepS1=T KeepF1=T KeepIn=T MapXYZ=F SortEE=F KeepMc=T.
          MDV=    1073741756 using IRadAn=       1.
 Generate precomputed XC quadrature information.
          Solving linear equations simultaneously, MaxMat=       0.
          There are     3 degrees of freedom in the 1st order CPHF.  IDoFFX=0.
      3 vectors produced by pass  0 Test12= 6.63D-14 3.33D-08 XBig12= 7.50D+00 9.85D-01.
 AX will form     3 AO Fock derivatives at one time.
 FoFJK:  IHMeth= 1 ICntrl=     0 DoSepK=T KAlg= 1 I1Cent= 0 FoldK=F
 FoFCou: FMM=F IPFlag=           0 FMFlag=      100000 FMFlg1=           0
         NFxFlg=           0 DoJE=T BraDBF=F KetDBF=F FulRan=T
         Omega=  0.000000  0.000000  1.000000  0.000000  0.000000 ICntrl=     500 IOpCl=  0
         NMat0=    3 NMatS0=    3 NMatT0=    0 NMatD0=    3 NMtDS0=    0 NMtDT0=    0
         I1Cent=           0 NGrid=           0.
 Symmetry not used in FoFCou.
      3 vectors produced by pass  1 Test12= 6.63D-14 3.33D-08 XBig12= 3.50D-01 2.35D-01.
 FoFJK:  IHMeth= 1 ICntrl=     0 DoSepK=T KAlg= 1 I1Cent= 0 FoldK=F
      3 vectors produced by pass  2 Test12= 6.63D-14 3.33D-08 XBig12= 6.37D-02 6.12D-02.
 FoFJK:  IHMeth= 1 ICntrl=     0 DoSepK=T KAlg= 1 I1Cent= 0 FoldK=F
      3 vectors produced by pass  3 Test12= 6.63D-14 3.33D-08 XBig12= 3.14D-03 1.24D-02.
 FoFJK:  IHMeth= 1 ICntrl=     0 DoSepK=T KAlg= 1 I1Cent= 0 FoldK=F
      3 vectors produced by pass  4 Test12= 6.63D-14 3.33D-08 XBig12= 7.29D-04 5.19D-03.
 FoFJK:  IHMeth= 1 ICntrl=     0 DoSepK=T KAlg= 1 I1Cent= 0 FoldK=F
      3 vectors produced by pass  5 Test12= 6.63D-14 3.33D-08 XBig12= 1.95D-05 1.10D-03.
 FoFJK:  IHMeth= 1 ICntrl=     0 DoSepK=T KAlg= 1 I1Cent= 0 FoldK=F
      3 vectors produced by pass  6 Test12= 6.63D-14 3.33D-08 XBig12= 4.54D-07 1.28D-04.
 FoFJK:  IHMeth= 1 ICntrl=     0 DoSepK=T KAlg= 1 I1Cent= 0 FoldK=F
      3 vectors produced by pass  7 Test12= 6.63D-14 3.33D-08 XBig12= 1.35D-08 3.34D-05.
 FoFJK:  IHMeth= 1 ICntrl=     0 DoSepK=T KAlg= 1 I1Cent= 0 FoldK=F
      3 vectors produced by pass  8 Test12= 6.63D-14 3.33D-08 XBig12= 1.07D-10 2.21D-06.
 FoFJK:  IHMeth= 1 ICntrl=     0 DoSepK=T KAlg= 1 I1Cent= 0 FoldK=F
      1 vectors produced by pass  9 Test12= 6.63D-14 3.33D-08 XBig12= 7.46D-13 2.33D-07.
 FoFJK:  IHMeth= 1 ICntrl=     0 DoSepK=T KAlg= 1 I1Cent= 0 FoldK=F
 Inverted reduced A of dimension    28 with in-core refinement.
 End of Minotr Frequency-dependent properties file   721 does not exist.
 End of Minotr Frequency-dependent properties file   722 does not exist.
 Leave Link 1002 at Thu Feb 26 00:47:15 2015, MaxMem= 1073741824 cpu:     617.9
 (Enter /apps/gaussian/g09_c01/g09/l1101.exe)
 Using compressed storage, NAtomX=     8.
 Will process   9 centers per pass.
 Leave Link 1101 at Thu Feb 26 00:47:15 2015, MaxMem= 1073741824 cpu:       1.9
 (Enter /apps/gaussian/g09_c01/g09/l1102.exe)
 Symmetrizing basis deriv contribution to polar:
 IMax=3 JMax=2 DiffMx= 0.00D+00
 Leave Link 1102 at Thu Feb 26 00:47:15 2015, MaxMem= 1073741824 cpu:       0.2
 (Enter /apps/gaussian/g09_c01/g09/l1110.exe)
 Forming Gx(P) for the SCF density, NAtomX=     8.
 Integral derivatives from FoFDir/FoFCou, PRISM(SPDF).
 Do as many integral derivatives as possible in FoFDir.
 G2DrvN: MDV=    1073741656.
 G2DrvN: will do     9 centers at a time, making    1 passes doing MaxLOS=3.
 Calling FoFCou, ICntrl=  3107 FMM=F I1Cent=   0 AccDes= 0.00D+00.
 FoFJK:  IHMeth= 1 ICntrl=  3107 DoSepK=T KAlg= 1 I1Cent= 0 FoldK=F
 FoFCou: FMM=F IPFlag=           0 FMFlag=      100000 FMFlg1=           0
         NFxFlg=           0 DoJE=F BraDBF=F KetDBF=F FulRan=T
         Omega=  0.000000  0.000000  1.000000  0.000000  0.000000 ICntrl=    3507 IOpCl=  0
         NMat0=    1 NMatS0=    1 NMatT0=    0 NMatD0=    4 NMtDS0=    3 NMtDT0=    0
         I1Cent=           0 NGrid=           0.
 Petite list used in FoFCou.
 FoFDir/FoFCou used for L=0 through L=3.
 End of G2Drv Frequency-dependent properties file   721 does not exist.
 End of G2Drv Frequency-dependent properties file   722 does not exist.
 Leave Link 1110 at Thu Feb 26 00:48:02 2015, MaxMem= 1073741824 cpu:     371.9
 (Enter /apps/gaussian/g09_c01/g09/l1002.exe)
 Minotr:  Closed shell wavefunction.
          IDoAtm=11111111
          Direct CPHF calculation.
          Differentiating once with respect to electric field.
                with respect to dipole field.
          Differentiating once with respect to nuclear coordinates.
          Using symmetry in CPHF.
          Requested convergence is 1.0D-08 RMS, and 1.0D-07 maximum.
          Secondary convergence is 1.0D-12 RMS, and 1.0D-12 maximum.
          NewPWx=T KeepS1=F KeepF1=F KeepIn=T MapXYZ=F SortEE=F KeepMc=T.
          MDV=    1073741740 using IRadAn=       1.
 Generate precomputed XC quadrature information.
          Solving linear equations simultaneously, MaxMat=       0.
 FoFJK:  IHMeth= 1 ICntrl=     0 DoSepK=T KAlg= 1 I1Cent= 0 FoldK=F
 FoFCou: FMM=F IPFlag=           0 FMFlag=      100000 FMFlg1=           0
         NFxFlg=           0 DoJE=F BraDBF=F KetDBF=F FulRan=T
         Omega=  0.000000  0.000000  1.000000  0.000000  0.000000 ICntrl=     500 IOpCl=  0
         NMat0=   15 NMatS0=   15 NMatT0=    0 NMatD0=   15 NMtDS0=    0 NMtDT0=    0
         I1Cent=           0 NGrid=           0.
 Integrals replicated using symmetry in FoFCou.
          There are    15 degrees of freedom in the 1st order CPHF.  IDoFFX=4.
 Will reuse    3 saved solutions.
     12 vectors produced by pass  0 Test12= 1.33D-14 6.67D-09 XBig12= 5.57D-02 6.03D-02.
 AX will form    12 AO Fock derivatives at one time.
 FoFJK:  IHMeth= 1 ICntrl=     0 DoSepK=T KAlg= 1 I1Cent= 0 FoldK=F
     12 vectors produced by pass  1 Test12= 1.33D-14 6.67D-09 XBig12= 3.19D-03 1.48D-02.
 FoFJK:  IHMeth= 1 ICntrl=     0 DoSepK=T KAlg= 1 I1Cent= 0 FoldK=F
     12 vectors produced by pass  2 Test12= 1.33D-14 6.67D-09 XBig12= 5.03D-05 2.04D-03.
 FoFJK:  IHMeth= 1 ICntrl=     0 DoSepK=T KAlg= 1 I1Cent= 0 FoldK=F
     12 vectors produced by pass  3 Test12= 1.33D-14 6.67D-09 XBig12= 4.31D-07 1.59D-04.
 FoFJK:  IHMeth= 1 ICntrl=     0 DoSepK=T KAlg= 1 I1Cent= 0 FoldK=F
     12 vectors produced by pass  4 Test12= 1.33D-14 6.67D-09 XBig12= 3.44D-09 1.55D-05.
 FoFJK:  IHMeth= 1 ICntrl=     0 DoSepK=T KAlg= 1 I1Cent= 0 FoldK=F
     12 vectors produced by pass  5 Test12= 1.33D-14 6.67D-09 XBig12= 2.30D-11 1.30D-06.
 FoFJK:  IHMeth= 1 ICntrl=     0 DoSepK=T KAlg= 1 I1Cent= 0 FoldK=F
      8 vectors produced by pass  6 Test12= 1.33D-14 6.67D-09 XBig12= 9.12D-14 4.81D-08.
 FoFJK:  IHMeth= 1 ICntrl=     0 DoSepK=T KAlg= 1 I1Cent= 0 FoldK=F
 Inverted reduced A of dimension    80 with in-core refinement.
 FullF1:  Do perturbations    1 to    15.
 FoFJK:  IHMeth= 1 ICntrl=     0 DoSepK=T KAlg= 1 I1Cent= 0 FoldK=F
 Isotropic polarizability for W=    0.000000       20.44 Bohr**3.
 FoFJK:  IHMeth= 1 ICntrl=     0 DoSepK=T KAlg= 1 I1Cent= 0 FoldK=F
 FullF1:  Do perturbations    1 to     6.
 FoFJK:  IHMeth= 1 ICntrl=     0 DoSepK=T KAlg= 1 I1Cent= 0 FoldK=F
 End of Minotr Frequency-dependent properties file   721 does not exist.
 End of Minotr Frequency-dependent properties file   722 does not exist.
 Leave Link 1002 at Thu Feb 26 00:50:31 2015, MaxMem= 1073741824 cpu:    1188.4
 (Enter /apps/gaussian/g09_c01/g09/l601.exe)
 Copying SCF densities to generalized density rwf, IOpCl= 0 IROHF=0.

 **********************************************************************

            Population analysis using the SCF density.

 **********************************************************************

 Orbital symmetries:
       Occupied  (A) (A) (A) (A) (E) (E) (A) (E) (E)
       Virtual   (A) (A) (E) (E) (E) (E) (A) (E) (E) (A) (A) (E)
                 (E) (A) (E) (E) (E) (E) (A) (E) (E) (A) (A) (A)
                 (E) (E) (A) (E) (E) (E) (E) (A) (E) (E) (A) (A)
                 (E) (E) (A) (E) (E) (A) (E) (E) (E) (E) (E) (E)
                 (A) (A) (A) (E) (E) (A) (E) (E) (A) (E) (E) (A)
                 (E) (E) (A) (A) (E) (E) (E) (E) (A) (A) (E) (E)
                 (E) (E) (A) (E) (E) (A) (E) (E) (E) (E) (E) (E)
                 (A) (E) (E) (A) (A) (E) (E) (A) (E) (E) (E) (E)
                 (A) (A) (E) (E) (A) (E) (E) (A) (A) (E) (E) (A)
                 (E) (E) (A) (E) (E) (A) (E) (E) (A) (E) (E) (A)
                 (E) (E) (E) (E) (A) (E) (E) (A) (E) (E) (A) (A)
                 (E) (E) (A) (A) (E) (E) (A) (E) (E) (A) (E) (E)
                 (A) (E) (E) (A) (E) (E) (E) (E) (A) (E) (E) (A)
                 (A) (E) (E) (E) (E) (E) (E) (A) (A) (E) (E) (A)
                 (A) (E) (E) (A) (E) (E) (E) (E) (E) (E) (A) (A)
                 (E) (E) (A) (E) (E) (E) (E) (A) (A) (E) (E) (A)
                 (A) (E) (E) (A) (E) (E) (E) (E) (A) (A) (E) (E)
                 (E) (E) (A) (A) (E) (E) (A) (A) (E) (E) (A) (E)
                 (E) (E) (E) (A) (A)
 The electronic state is 1-A.
 Alpha  occ. eigenvalues --  -14.73841 -10.51106  -1.30244  -1.01409  -0.87478
 Alpha  occ. eigenvalues --   -0.87478  -0.77382  -0.69367  -0.69367
 Alpha virt. eigenvalues --   -0.18096  -0.12126  -0.12020  -0.12020  -0.07930
 Alpha virt. eigenvalues --   -0.07930  -0.07496  -0.05248  -0.05248  -0.04152
 Alpha virt. eigenvalues --   -0.03372  -0.02679  -0.02679  -0.00747  -0.00543
 Alpha virt. eigenvalues --   -0.00543   0.01403   0.01403   0.02610   0.06100
 Alpha virt. eigenvalues --    0.06100   0.09352   0.11596   0.11631   0.12372
 Alpha virt. eigenvalues --    0.12372   0.15027   0.15481   0.15481   0.18086
 Alpha virt. eigenvalues --    0.18086   0.18338   0.19307   0.19307   0.20040
 Alpha virt. eigenvalues --    0.20779   0.20952   0.20952   0.22348   0.28427
 Alpha virt. eigenvalues --    0.28427   0.29041   0.29447   0.29447   0.32294
 Alpha virt. eigenvalues --    0.32294   0.36160   0.36160   0.36377   0.46722
 Alpha virt. eigenvalues --    0.47935   0.48412   0.48412   0.53496   0.53801
 Alpha virt. eigenvalues --    0.53801   0.57015   0.58943   0.58943   0.61564
 Alpha virt. eigenvalues --    0.64161   0.64161   0.64499   0.64624   0.65078
 Alpha virt. eigenvalues --    0.65078   0.69301   0.69301   0.71067   0.73048
 Alpha virt. eigenvalues --    0.78461   0.78461   0.79870   0.79870   0.80169
 Alpha virt. eigenvalues --    0.86407   0.86407   0.87350   0.89003   0.89003
 Alpha virt. eigenvalues --    0.92581   0.92581   0.95462   0.95462   0.96910
 Alpha virt. eigenvalues --    0.99314   0.99314   1.03038   1.03348   1.04048
 Alpha virt. eigenvalues --    1.04048   1.15737   1.16150   1.16150   1.23193
 Alpha virt. eigenvalues --    1.23193   1.24958   1.27335   1.27406   1.27406
 Alpha virt. eigenvalues --    1.29966   1.32747   1.32747   1.36384   1.37791
 Alpha virt. eigenvalues --    1.42952   1.42952   1.43821   1.48758   1.48758
 Alpha virt. eigenvalues --    1.54015   1.60871   1.60871   1.62344   1.62375
 Alpha virt. eigenvalues --    1.62375   1.68190   1.70856   1.70856   1.72637
 Alpha virt. eigenvalues --    1.83232   1.83232   1.85533   1.85533   1.94620
 Alpha virt. eigenvalues --    2.00590   2.00590   2.03649   2.09188   2.09188
 Alpha virt. eigenvalues --    2.17838   2.18369   2.22222   2.22222   2.49972
 Alpha virt. eigenvalues --    2.70702   2.88236   2.88236   2.93561   3.10113
 Alpha virt. eigenvalues --    3.10113   3.14493   3.14964   3.14964   3.24400
 Alpha virt. eigenvalues --    3.25546   3.25546   3.34058   3.41313   3.41313
 Alpha virt. eigenvalues --    3.47997   3.47997   3.57605   3.59245   3.59245
 Alpha virt. eigenvalues --    3.60762   3.63236   3.64219   3.64219   3.72682
 Alpha virt. eigenvalues --    3.72682   3.77304   3.77304   3.79971   3.91712
 Alpha virt. eigenvalues --    3.96055   3.96055   4.03003   4.04019   4.06901
 Alpha virt. eigenvalues --    4.06901   4.11860   4.15130   4.15130   4.22469
 Alpha virt. eigenvalues --    4.22469   4.28064   4.28064   4.33626   4.34912
 Alpha virt. eigenvalues --    4.40429   4.40429   4.46115   4.48369   4.48369
 Alpha virt. eigenvalues --    4.56981   4.56981   4.58155   4.61194   4.70429
 Alpha virt. eigenvalues --    4.70429   4.77815   4.90034   4.92211   4.92211
 Alpha virt. eigenvalues --    4.96155   5.16374   5.16374   5.24520   5.24520
 Alpha virt. eigenvalues --    5.25255   5.28203   5.47491   5.47491   5.55214
 Alpha virt. eigenvalues --    5.55214   5.57298   5.77877   5.86293   5.86293
 Alpha virt. eigenvalues --    5.91152   6.10702   6.14245   6.14245   6.25875
 Alpha virt. eigenvalues --    6.47689   6.47689   7.13307   7.13307  16.42151
 Alpha virt. eigenvalues --   17.70755
          Condensed to atoms (all electrons):
              1          2          3          4          5          6
     1  C    5.360859   0.377687   0.377687   0.377687   0.127916  -0.014314
     2  H    0.377687   0.296689   0.006507   0.006507  -0.008435  -0.000727
     3  H    0.377687   0.006507   0.296689   0.006507  -0.008435  -0.000574
     4  H    0.377687   0.006507   0.006507   0.296689  -0.008435  -0.000573
     5  N    0.127916  -0.008435  -0.008435  -0.008435   5.603417   0.384491
     6  H   -0.014314  -0.000727  -0.000574  -0.000573   0.384491   0.552090
     7  H   -0.014314  -0.000574  -0.000573  -0.000727   0.384491  -0.038472
     8  H   -0.014314  -0.000573  -0.000727  -0.000574   0.384491  -0.038472
              7          8
     1  C   -0.014314  -0.014314
     2  H   -0.000574  -0.000573
     3  H   -0.000573  -0.000727
     4  H   -0.000727  -0.000574
     5  N    0.384491   0.384491
     6  H   -0.038472  -0.038472
     7  H    0.552090  -0.038472
     8  H   -0.038472   0.552090
 Mulliken atomic charges:
              1
     1  C   -0.578896
     2  H    0.322918
     3  H    0.322918
     4  H    0.322918
     5  N    0.140498
     6  H    0.156548
     7  H    0.156548
     8  H    0.156548
 Sum of Mulliken atomic charges =   1.00000
 Mulliken charges with hydrogens summed into heavy atoms:
              1
     1  C    0.389856
     5  N    0.610144
 Sum of Mulliken charges with hydrogens summed into heavy atoms =   1.00000
 APT atomic charges:
              1
     1  C    0.245120
     2  H    0.071605
     3  H    0.071606
     4  H    0.071605
     5  N   -0.248981
     6  H    0.263015
     7  H    0.263015
     8  H    0.263015
 Sum of APT charges=   1.00000
 APT Atomic charges with hydrogens summed into heavy atoms:
              1
     1  C    0.459936
     2  H    0.000000
     3  H    0.000000
     4  H    0.000000
     5  N    0.540064
     6  H    0.000000
     7  H    0.000000
     8  H    0.000000
 Sum of APT charges=   1.00000
 Electronic spatial extent (au):  <R**2>=             94.8513
 Charge=              1.0000 electrons
 Dipole moment (field-independent basis, Debye):
    X=              0.0000    Y=              0.0000    Z=              2.1790  Tot=              2.1790
 Quadrupole moment (field-independent basis, Debye-Ang):
   XX=            -10.2234   YY=            -10.2234   ZZ=             -6.7720
   XY=              0.0000   XZ=              0.0000   YZ=              0.0000
 Traceless Quadrupole moment (field-independent basis, Debye-Ang):
   XX=             -1.1505   YY=             -1.1505   ZZ=              2.3009
   XY=              0.0000   XZ=              0.0000   YZ=              0.0000
 Octapole moment (field-independent basis, Debye-Ang**2):
  XXX=             -0.4021  YYY=             -0.1154  ZZZ=              5.8025  XYY=              0.4021
  XXY=              0.1154  XXZ=              2.6170  XZZ=              0.0000  YZZ=              0.0000
  YYZ=              2.6170  XYZ=              0.0000
 Hexadecapole moment (field-independent basis, Debye-Ang**3):
 XXXX=            -18.3389 YYYY=            -18.3389 ZZZZ=            -63.0669 XXXY=              0.0000
 XXXZ=             -2.7726 YYYX=              0.0000 YYYZ=             -0.7925 ZZZX=              0.0000
 ZZZY=              0.0000 XXYY=             -6.1130 XXZZ=            -10.9707 YYZZ=            -10.9707
 XXYZ=              0.7925 YYXZ=              2.7726 ZZXY=              0.0000
 N-N= 4.758461005939D+01 E-N=-3.131848193321D+02  KE= 9.553548899156D+01
  Exact polarizability:  19.407   0.000  19.407   0.000   0.000  22.497
 Approx polarizability:  21.985   0.000  21.985   0.000   0.000  23.011
 No NMR shielding tensors so no spin-rotation constants.
 Leave Link  601 at Thu Feb 26 00:50:31 2015, MaxMem= 1073741824 cpu:       1.6
 (Enter /apps/gaussian/g09_c01/g09/l701.exe)
 Compute integral second derivatives.
 ... and contract with generalized density number  0.
 Leave Link  701 at Thu Feb 26 00:50:31 2015, MaxMem= 1073741824 cpu:       2.0
 (Enter /apps/gaussian/g09_c01/g09/l702.exe)
 L702 exits ... SP integral derivatives will be done elsewhere.
 Leave Link  702 at Thu Feb 26 00:50:31 2015, MaxMem= 1073741824 cpu:       0.1
 (Enter /apps/gaussian/g09_c01/g09/l703.exe)
 Compute integral second derivatives, UseDBF=F ICtDFT=           0.
 Integral derivatives from FoFDir, PRISM(SPDF).
 Calling FoFJK, ICntrl=    100127 FMM=F ISym2X=1 I1Cent= 0 IOpClX= 0 NMat=1 NMatS=1 NMatT=0.
 FoFJK:  IHMeth= 1 ICntrl=100127 DoSepK=T KAlg= 1 I1Cent= 0 FoldK=F
 FoFCou: FMM=F IPFlag=           0 FMFlag=      100000 FMFlg1=         800
         NFxFlg=           0 DoJE=F BraDBF=F KetDBF=F FulRan=T
         Omega=  0.000000  0.000000  1.000000  0.000000  0.000000 ICntrl=  100527 IOpCl=  0
         NMat0=    1 NMatS0=    1 NMatT0=    0 NMatD0=    1 NMtDS0=    0 NMtDT0=    0
         I1Cent=           0 NGrid=           0.
 Petite list used in FoFCou.
 Leave Link  703 at Thu Feb 26 00:51:42 2015, MaxMem= 1073741824 cpu:     565.8
 (Enter /apps/gaussian/g09_c01/g09/l716.exe)
 Dipole        =-1.55783250D-15 2.46809477D-15 8.57267236D-01
 Polarizability= 1.94072773D+01-1.43839039D-05 1.94072873D+01
                 1.19835692D-05 3.31894000D-05 2.24973287D+01
 HyperPolar    = 1.67966210D+00-4.78158705D-01-1.67637919D+00
                 4.77052712D-01-2.48039582D+00 6.81958711D-05
                -2.47988532D+00 2.86293429D-05 3.36699826D-05
                 4.28170111D+00
 ***** Axes restored to original set *****
 -------------------------------------------------------------------
 Center     Atomic                   Forces (Hartrees/Bohr)
 Number     Number              X              Y              Z
 -------------------------------------------------------------------
      1        6           0.000000000    0.000000000    0.003300873
      2        1           0.000314362    0.003383902    0.001186119
      3        1           0.002773364   -0.001964197    0.001186119
      4        1          -0.003087726   -0.001419705    0.001186119
      5        7           0.000000000    0.000000000    0.000732828
      6        1          -0.000419213   -0.004497271   -0.002530686
      7        1           0.004104358    0.001885587   -0.002530686
      8        1          -0.003685145    0.002611685   -0.002530686
 -------------------------------------------------------------------
 Cartesian Forces:  Max     0.004497271 RMS     0.002333800
 Force constants in Cartesian coordinates: 
                1             2             3             4             5 
      1  0.625528D+00
      2  0.000000D+00  0.625528D+00
      3  0.000000D+00  0.000000D+00  0.402133D+00
      4 -0.550946D-01 -0.232992D-01 -0.748201D-02  0.502223D-01
      5 -0.232999D-01 -0.303475D+00 -0.804315D-01  0.249039D-01  0.315705D+00
      6 -0.612925D-02 -0.658801D-01 -0.728762D-01  0.769796D-02  0.827470D-01
      7 -0.221202D+00  0.119202D+00 -0.659147D-01  0.459689D-02 -0.301597D-02
      8  0.119202D+00 -0.137368D+00  0.466954D-01  0.229538D-01 -0.125077D-01
      9 -0.539892D-01  0.382481D-01 -0.728762D-01  0.910038D-02 -0.416541D-02
     10 -0.261558D+00 -0.959018D-01  0.733968D-01  0.401795D-03  0.593934D-03
     11 -0.959025D-01 -0.970117D-01  0.337361D-01 -0.253759D-01 -0.831261D-02
     12  0.601184D-01  0.276319D-01 -0.728762D-01 -0.971232D-02 -0.241593D-02
     13 -0.979344D-01 -0.185294D-05  0.000000D+00 -0.576020D-03  0.728439D-03
     14  0.194251D-05 -0.979341D-01  0.000000D+00  0.727627D-03  0.718674D-02
     15  0.000000D+00  0.000000D+00 -0.148701D+00  0.342647D-03  0.369146D-02
     16  0.255469D-03  0.595049D-03 -0.214652D-03  0.321570D-03  0.461838D-04
     17  0.594299D-03  0.658515D-02 -0.231088D-02  0.461894D-04  0.813654D-03
     18 -0.305413D-02 -0.328056D-01 -0.116012D-01  0.198223D-03  0.213299D-02
     19  0.551777D-02  0.244384D-02  0.210855D-02  0.155960D-03  0.306347D-03
     20  0.244312D-02  0.132287D-02  0.969516D-03  0.718100D-03  0.202914D-03
     21  0.299376D-01  0.137579D-01 -0.116011D-01  0.310441D-03 -0.814864D-03
     22  0.448768D-02 -0.303784D-02 -0.189393D-02 -0.278715D-04 -0.263085D-03
     23 -0.303853D-02  0.235293D-02  0.134131D-02 -0.674546D-03  0.387469D-03
     24 -0.268835D-01  0.190477D-01 -0.116011D-01 -0.455276D-03 -0.743821D-03
                6             7             8             9            10 
      6  0.870427D-01
      7  0.276390D-02  0.227767D+00
      8  0.961908D-02 -0.127409D+00  0.138160D+00
      9  0.514543D-02  0.678120D-01 -0.480401D-01  0.870427D-01
     10 -0.942838D-03 -0.168649D-01 -0.105629D-01  0.694842D-02  0.270902D+00
     11  0.996386D-02  0.154069D-01  0.895409D-02 -0.720315D-02  0.102505D+00
     12  0.514543D-02 -0.815754D-02 -0.579845D-02  0.514543D-02 -0.755100D-01
     13 -0.340665D-02  0.461557D-02 -0.372499D-02 -0.300174D-01  0.587668D-02
     14 -0.366280D-01 -0.372585D-02  0.199520D-02  0.212642D-01  0.299695D-02
     15 -0.205464D-01  0.302557D-02 -0.214252D-02 -0.205464D-01 -0.336840D-02
     16  0.174517D-03 -0.252423D-03 -0.482320D-03 -0.683876D-03 -0.122372D-03
     17  0.187101D-02 -0.705666D-04  0.611297D-03  0.505103D-03  0.208525D-03
     18 -0.647132D-02 -0.860913D-03  0.138583D-03  0.127972D-02  0.871806D-03
     19 -0.954944D-04  0.689640D-03  0.260290D-03 -0.703449D-03  0.730632D-03
     20 -0.844805D-03 -0.151171D-03 -0.330042D-03  0.477900D-03  0.189988D-03
     21  0.127972D-02 -0.416530D-03  0.766191D-03  0.128059D-02 -0.194633D-02
     22 -0.621488D-04  0.650634D-03 -0.236175D-03  0.153309D-02  0.634774D-03
     23 -0.848155D-03 -0.236169D-03  0.484590D-03 -0.108664D-02 -0.299039D-04
     24  0.128059D-02  0.174811D-02 -0.123816D-02 -0.647132D-02  0.550473D-03
               11            12            13            14            15 
     11  0.950255D-01
     12 -0.347069D-01  0.870427D-01
     13  0.299780D-02  0.334240D-01  0.709430D+00
     14  0.734170D-03  0.153637D-01  0.000000D+00  0.709429D+00
     15 -0.154903D-02 -0.205463D-01  0.000000D+00  0.000000D+00  0.511502D+00
     16  0.619986D-03  0.765598D-03 -0.671874D-01 -0.262895D-01 -0.979098D-02
     17  0.481969D-03  0.370255D-03 -0.262889D-01 -0.347087D+00 -0.105144D+00
     18 -0.223696D-04  0.128059D-02 -0.104484D-01 -0.112209D+00 -0.100387D+00
     19  0.189983D-03 -0.170760D-02 -0.299879D+00 -0.108056D+00  0.959527D-01
     20  0.404592D-03 -0.784371D-03 -0.108055D+00 -0.114395D+00  0.440927D-01
     21 -0.894828D-03 -0.647132D-02  0.102400D+00  0.470560D-01 -0.100387D+00
     22 -0.441657D-03  0.779370D-03 -0.254345D+00  0.134344D+00 -0.861617D-01
     23 -0.275900D-03  0.339702D-03  0.134345D+00 -0.159929D+00  0.610511D-01
     24  0.676281D-03  0.127972D-02 -0.919518D-01  0.651532D-01 -0.100387D+00
               16            17            18            19            20 
     16  0.620954D-01
     17  0.286780D-01  0.367421D+00
     18  0.107141D-01  0.115070D+00  0.104443D+00
     19 -0.298096D-03 -0.592076D-03 -0.723431D-03  0.315926D+00
     20 -0.317747D-01 -0.116703D-01  0.140356D-01  0.117871D+00  0.113591D+00
     21 -0.134816D-01 -0.396996D-02  0.572843D-02 -0.105010D+00 -0.482561D-01
     22  0.518794D-02 -0.257529D-02  0.330273D-02 -0.228425D-01  0.187587D-01
     23  0.286073D-01 -0.171564D-01  0.136604D-01 -0.124239D-01  0.108741D-01
     24  0.125169D-01 -0.639131D-02  0.572843D-02  0.101789D-01 -0.969046D-02
               21            22            23            24 
     21  0.104443D+00
     22 -0.117935D-01  0.266254D+00
     23 -0.764433D-02 -0.146549D+00  0.163263D+00
     24  0.572843D-02  0.942961D-01 -0.668135D-01  0.104443D+00
 Force constants in internal coordinates: 
                1             2             3             4             5 
      1  0.344805D+00
      2  0.203241D-02  0.344805D+00
      3  0.203243D-02  0.203240D-02  0.344805D+00
      4  0.356082D-02  0.356079D-02  0.356067D-02  0.256876D+00
      5 -0.127379D-02  0.354746D-03  0.354768D-03  0.529935D-02  0.413207D+00
      6  0.354759D-03  0.354788D-03 -0.127374D-02  0.529929D-02  0.295953D-02
      7  0.354767D-03 -0.127379D-02  0.354750D-03  0.529930D-02  0.295952D-02
      8  0.378794D-02  0.378859D-02 -0.132361D-02 -0.252717D-01  0.488627D-04
      9  0.378858D-02 -0.132360D-02  0.378796D-02 -0.252716D-01  0.493491D-04
     10  0.482123D-03 -0.352896D-02 -0.352915D-02  0.265771D-01  0.227982D-02
     11 -0.132360D-02  0.378795D-02  0.378860D-02 -0.252716D-01  0.930329D-03
     12 -0.352909D-02  0.482062D-03 -0.352900D-02  0.265771D-01 -0.168056D-02
     13 -0.352898D-02 -0.352906D-02  0.482167D-03  0.265772D-01 -0.168094D-02
     14  0.534186D-03  0.159629D-03  0.159298D-03  0.131504D-01 -0.472151D-02
     15  0.159626D-03  0.159285D-03  0.534173D-03  0.131504D-01 -0.414648D-02
     16  0.159268D-03  0.534171D-03  0.159667D-03  0.131504D-01 -0.414619D-02
     17 -0.382844D-03 -0.151303D-03 -0.382667D-03 -0.141324D-01  0.684920D-02
     18 -0.382636D-03 -0.382838D-03 -0.151312D-03 -0.141324D-01  0.685169D-02
     19 -0.151301D-03 -0.382647D-03 -0.382864D-03 -0.141323D-01  0.285082D-03
     20  0.000000D+00 -0.281201D-02  0.281195D-02  0.000000D+00  0.169944D-05
     21 -0.124306D-04 -0.278643D-02  0.279915D-02  0.000000D+00  0.265921D-02
     22  0.131380D-04 -0.279922D-02  0.278635D-02  0.000000D+00 -0.265917D-02
     23  0.279913D-02 -0.124330D-04 -0.278647D-02  0.000000D+00  0.401033D-03
     24  0.278634D-02  0.131479D-04 -0.279927D-02  0.000000D+00  0.305854D-02
     25  0.281191D-02  0.000000D+00 -0.281207D-02  0.000000D+00 -0.225984D-02
     26 -0.279924D-02  0.278633D-02  0.131681D-04  0.000000D+00 -0.398003D-03
     27 -0.281203D-02  0.281191D-02  0.000000D+00  0.000000D+00  0.225951D-02
     28 -0.278646D-02  0.279912D-02 -0.124354D-04  0.000000D+00 -0.305888D-02
                6             7             8             9            10 
      6  0.413207D+00
      7  0.295950D-02  0.413207D+00
      8  0.930319D-03  0.493434D-04  0.523910D-01
      9  0.488571D-04  0.930326D-03  0.121106D-01  0.523910D-01
     10 -0.168057D-02 -0.168091D-02 -0.455174D-01 -0.455148D-01  0.132408D+00
     11  0.493352D-04  0.488607D-04  0.121106D-01  0.121106D-01  0.104623D-01
     12 -0.168089D-02  0.227983D-02 -0.455148D-01  0.104623D-01 -0.238379D-01
     13  0.227982D-02 -0.168058D-02  0.104623D-01 -0.455174D-01 -0.238379D-01
     14 -0.414625D-02 -0.414645D-02 -0.384768D-02 -0.384750D-02  0.170215D-01
     15 -0.472155D-02 -0.414620D-02  0.344371D-02 -0.384769D-02 -0.627446D-02
     16 -0.414645D-02 -0.472154D-02 -0.384751D-02  0.344371D-02 -0.627597D-02
     17  0.685172D-02  0.285076D-03  0.584712D-03  0.339966D-02 -0.456125D-02
     18  0.285100D-03  0.684921D-02  0.339966D-02  0.584568D-03 -0.456050D-02
     19  0.684922D-02  0.685171D-02  0.584576D-03  0.584714D-03  0.431679D-02
     20 -0.225984D-02  0.225950D-02 -0.591946D-02  0.591824D-02  0.139237D-05
     21  0.401015D-03 -0.305888D-02 -0.545067D-02  0.498072D-02  0.154881D-02
     22  0.305854D-02 -0.398013D-03 -0.498193D-02  0.544951D-02 -0.154594D-02
     23 -0.305887D-02  0.265921D-02  0.498072D-02  0.468892D-03  0.730073D-02
     24 -0.398013D-03 -0.265916D-02  0.544951D-02 -0.468632D-03  0.884815D-02
     25  0.225951D-02  0.170202D-05  0.591824D-02  0.000000D+00  0.575340D-02
     26 -0.265916D-02  0.305854D-02 -0.468636D-03 -0.498194D-02 -0.730108D-02
     27  0.169418D-05 -0.225984D-02  0.000000D+00 -0.591947D-02 -0.575366D-02
     28  0.265922D-02  0.401023D-03  0.468891D-03 -0.545067D-02 -0.884841D-02
               11            12            13            14            15 
     11  0.523910D-01
     12 -0.455174D-01  0.132408D+00
     13 -0.455148D-01 -0.238379D-01  0.132408D+00
     14  0.344371D-02 -0.627444D-02 -0.627599D-02  0.983112D-01
     15 -0.384750D-02 -0.627599D-02  0.170216D-01 -0.177915D-01  0.983113D-01
     16 -0.384769D-02  0.170216D-01 -0.627447D-02 -0.177916D-01 -0.177916D-01
     17  0.584573D-03  0.431678D-02 -0.456051D-02 -0.402488D-01 -0.402487D-01
     18  0.584719D-03 -0.456127D-02  0.431679D-02 -0.402487D-01  0.130853D-01
     19  0.339966D-02 -0.456052D-02 -0.456125D-02  0.130854D-01 -0.402488D-01
     20  0.000000D+00 -0.575366D-02  0.575338D-02  0.000000D+00 -0.233802D-02
     21  0.468895D-03 -0.884841D-02  0.730071D-02  0.384728D-02  0.150963D-02
     22 -0.468633D-03 -0.730109D-02  0.884814D-02 -0.384777D-02  0.535707D-02
     23 -0.545068D-02  0.154879D-02 -0.884840D-02  0.150963D-02 -0.535690D-02
     24 -0.498194D-02 -0.154596D-02 -0.730107D-02  0.535705D-02 -0.150924D-02
     25 -0.591947D-02  0.136251D-05 -0.575364D-02 -0.233800D-02  0.233819D-02
     26  0.544951D-02  0.884816D-02 -0.154596D-02 -0.150924D-02 -0.384778D-02
     27  0.591825D-02  0.575340D-02  0.137653D-05  0.233818D-02  0.000000D+00
     28  0.498072D-02  0.730073D-02  0.154880D-02 -0.535686D-02  0.384730D-02
               16            17            18            19            20 
     16  0.983113D-01
     17  0.130854D-01  0.536802D-01
     18 -0.402488D-01  0.938289D-02  0.536802D-01
     19 -0.402487D-01  0.938288D-02  0.938288D-02  0.536802D-01
     20  0.233819D-02 -0.720783D-02  0.720786D-02  0.000000D+00  0.142913D-01
     21 -0.535688D-02  0.608660D-02  0.560703D-03 -0.664734D-02  0.349841D-02
     22 -0.150925D-02 -0.560572D-03 -0.608659D-02  0.664710D-02  0.349845D-02
     23  0.384730D-02 -0.664733D-02  0.608660D-02  0.560696D-03  0.393717D-02
     24 -0.384777D-02  0.664710D-02 -0.560562D-03 -0.608658D-02 -0.685576D-02
     25  0.000000D+00  0.000000D+00 -0.720785D-02  0.720786D-02 -0.685572D-02
     26  0.535706D-02 -0.608657D-02  0.664710D-02 -0.560564D-03  0.393721D-02
     27 -0.233801D-02  0.720785D-02  0.000000D+00 -0.720784D-02 -0.685572D-02
     28  0.150962D-02  0.560682D-03 -0.664735D-02  0.608660D-02 -0.685568D-02
               21            22            23            24            25 
     21  0.149300D-01
     22  0.381778D-02  0.149301D-01
     23 -0.717504D-02 -0.749442D-02  0.149300D-01
     24  0.425654D-02 -0.717509D-02  0.381778D-02  0.149301D-01
     25 -0.685568D-02  0.393722D-02  0.349841D-02  0.349845D-02  0.142913D-01
     26 -0.749442D-02 -0.717510D-02  0.425654D-02 -0.717509D-02 -0.685577D-02
     27  0.393716D-02 -0.685577D-02 -0.685568D-02  0.393720D-02 -0.685573D-02
     28 -0.717505D-02  0.425654D-02 -0.717505D-02 -0.749442D-02  0.393717D-02
               26            27            28 
     26  0.149301D-01
     27  0.349846D-02  0.142913D-01
     28  0.381778D-02  0.349841D-02  0.149300D-01
 Leave Link  716 at Thu Feb 26 00:51:42 2015, MaxMem= 1073741824 cpu:       0.2
 (Enter /apps/gaussian/g09_c01/g09/l103.exe)

 GradGradGradGradGradGradGradGradGradGradGradGradGradGradGradGradGradGrad
 Berny optimization.
 Red2BG is reusing G-inverse.
 Internal  Forces:  Max     0.006859230 RMS     0.002445336
 Search for a local minimum.
 Step number   1 out of a maximum of   38
 All quantities printed in internal units (Hartrees-Bohrs-Radians)
 RMS Force = .24453D-02 SwitMx=.10000D-02 MixMth= 1
 Mixed Optimization -- RFO/linear search
 Second derivative matrix not updated -- analytic derivatives used.
 ITU=  0
     Eigenvalues ---    0.00174   0.04745   0.04745   0.04913   0.04913
     Eigenvalues ---    0.12070   0.13067   0.13067   0.13488   0.19425
     Eigenvalues ---    0.19425   0.29563   0.34314   0.34314   0.34947
     Eigenvalues ---    0.41066   0.41066   0.42071
 RFO step:  Lambda=-4.87338369D-04 EMin= 1.73969245D-03
 Linear search not attempted -- first point.
 Iteration  1 RMS(Cart)=  0.00985002 RMS(Int)=  0.00001529
 Iteration  2 RMS(Cart)=  0.00001326 RMS(Int)=  0.00000424
 Iteration  3 RMS(Cart)=  0.00000000 RMS(Int)=  0.00000424
 ClnCor:  largest displacement from symmetrization is 2.85D-08 for atom     3.
 Variable       Old X    -DE/DX   Delta X   Delta X   Delta X     New X
                                 (Linear)    (Quad)   (Total)
    R1        2.05946  -0.00360   0.00000  -0.00990  -0.00990   2.04956
    R2        2.05946  -0.00360   0.00000  -0.00990  -0.00990   2.04956
    R3        2.05946  -0.00360   0.00000  -0.00990  -0.00990   2.04956
    R4        2.86675  -0.00686   0.00000  -0.02652  -0.02652   2.84022
    R5        1.94289  -0.00513   0.00000  -0.01211  -0.01211   1.93078
    R6        1.94289  -0.00513   0.00000  -0.01211  -0.01211   1.93078
    R7        1.94289  -0.00513   0.00000  -0.01211  -0.01211   1.93078
    A1        1.93261   0.00007   0.00000  -0.00345  -0.00346   1.92915
    A2        1.93261   0.00007   0.00000  -0.00345  -0.00346   1.92915
    A3        1.88811  -0.00007   0.00000   0.00363   0.00362   1.89173
    A4        1.93261   0.00007   0.00000  -0.00345  -0.00346   1.92915
    A5        1.88811  -0.00007   0.00000   0.00363   0.00362   1.89173
    A6        1.88811  -0.00007   0.00000   0.00363   0.00362   1.89173
    A7        1.94749  -0.00062   0.00000  -0.00335  -0.00336   1.94413
    A8        1.94749  -0.00062   0.00000  -0.00335  -0.00336   1.94413
    A9        1.94749  -0.00062   0.00000  -0.00335  -0.00336   1.94413
   A10        1.87238   0.00067   0.00000   0.00360   0.00360   1.87598
   A11        1.87238   0.00067   0.00000   0.00360   0.00360   1.87598
   A12        1.87238   0.00067   0.00000   0.00360   0.00360   1.87598
    D1        3.14146   0.00000   0.00000   0.00011   0.00011   3.14158
    D2       -1.04733   0.00000   0.00000   0.00011   0.00011  -1.04721
    D3        1.04707   0.00000   0.00000   0.00011   0.00011   1.04718
    D4       -1.04733   0.00000   0.00000   0.00011   0.00011  -1.04721
    D5        1.04707   0.00000   0.00000   0.00011   0.00011   1.04718
    D6        3.14146   0.00000   0.00000   0.00011   0.00011   3.14158
    D7        1.04707   0.00000   0.00000   0.00011   0.00011   1.04718
    D8        3.14146   0.00000   0.00000   0.00011   0.00011   3.14158
    D9       -1.04733   0.00000   0.00000   0.00011   0.00011  -1.04721
         Item               Value     Threshold  Converged?
 Maximum Force            0.006859     0.000002     NO 
 RMS     Force            0.002445     0.000001     NO 
 Maximum Displacement     0.018680     0.000006     NO 
 RMS     Displacement     0.009856     0.000004     NO 
 Predicted change in Energy=-2.440562D-04
 GradGradGradGradGradGradGradGradGradGradGradGradGradGradGradGradGradGrad

 Leave Link  103 at Thu Feb 26 00:51:42 2015, MaxMem= 1073741824 cpu:       0.1
 (Enter /apps/gaussian/g09_c01/g09/l202.exe)
                          Input orientation:                          
 ---------------------------------------------------------------------
 Center     Atomic      Atomic             Coordinates (Angstroms)
 Number     Number       Type             X           Y           Z
 ---------------------------------------------------------------------
      1          6           0        0.000000    0.000000   -0.794570
      2          1           0       -0.095352   -1.024775   -1.136703
      3          1           0       -0.839805    0.594965   -1.136703
      4          1           0        0.935157    0.429810   -1.136703
      5          7           0        0.000000    0.000000    0.708411
      6          1           0        0.088155    0.947251    1.081056
      7          1           0       -0.864421   -0.397281    1.081056
      8          1           0        0.776266   -0.549970    1.081056
 ---------------------------------------------------------------------
                    Distance matrix (angstroms):
                    1          2          3          4          5
     1  C    0.000000
     2  H    1.084579   0.000000
     3  H    1.084579   1.782629   0.000000
     4  H    1.084579   1.782629   1.782629   0.000000
     5  N    1.502981   2.112747   2.112747   2.112747   0.000000
     6  H    2.103100   2.973385   2.429748   2.429736   1.021725
     7  H    2.103100   2.429748   2.429736   2.973385   1.021725
     8  H    2.103100   2.429736   2.973385   2.429748   1.021725
                    6          7          8
     6  H    0.000000
     7  H    1.647777   0.000000
     8  H    1.647777   1.647777   0.000000
 Stoichiometry    CH6N(1+)
 Framework group  C3[C3(CN),X(H6)]
 Deg. of freedom     6
 Full point group                 C3      NOp   3
 RotChk:  IX=0 Diff= 0.00D+00
 Largest Abelian subgroup         C1      NOp   1
 Largest concise Abelian subgroup C1      NOp   1
                         Standard orientation:                         
 ---------------------------------------------------------------------
 Center     Atomic      Atomic             Coordinates (Angstroms)
 Number     Number       Type             X           Y           Z
 ---------------------------------------------------------------------
      1          6           0        0.000000    0.000000   -0.795860
      2          1           0        1.024775   -0.095352   -1.137993
      3          1           0       -0.594965   -0.839805   -1.137993
      4          1           0       -0.429810    0.935157   -1.137993
      5          7           0        0.000000    0.000000    0.707120
      6          1           0       -0.947251    0.088155    1.079766
      7          1           0        0.397281   -0.864421    1.079766
      8          1           0        0.549970    0.776266    1.079766
 ---------------------------------------------------------------------
 Rotational constants (GHZ):     85.0942517     20.2057562     20.2057562
 Leave Link  202 at Thu Feb 26 00:51:42 2015, MaxMem= 1073741824 cpu:       0.0
 (Enter /apps/gaussian/g09_c01/g09/l301.exe)
 Standard basis: Aug-CC-pVTZ (5D, 7F)
 Ernie: Thresh=  0.10000D-02 Tol=  0.10000D-05 Strict=F.
 Ernie:  6 primitive shells out of 126 were deleted.
 There are   230 symmetry adapted basis functions of A   symmetry.
 Integral buffers will be    131072 words long.
 Raffenetti 2 integral format.
 Two-electron integral symmetry is turned on.
   230 basis functions,   306 primitive gaussians,   260 cartesian basis functions
     9 alpha electrons        9 beta electrons
       nuclear repulsion energy        47.9300180386 Hartrees.
 IExCor=20419 DFT=T Ex+Corr=CAM-B3LYP ExCW=0 ScaHFX=  1.000000
 ScaDFX=  1.000000  1.000000  1.000000  0.810000 ScalE2=  1.000000  1.000000
 IRadAn=      5 IRanWt=     -1 IRanGd=            0 ICorTp=0
  HFx wShort=  0.000000 wLong=  0.330000 cFull=  0.190000 cShort=  0.000000 cLong=  0.460000
  DFx wShort=  0.000000 wLong=  0.330000 cFull=  0.190000 cShort=  0.000000 cLong=  0.460000
 NAtoms=    8 NActive=    8 NUniq=    4 SFac= 4.00D+00 NAtFMM=   60 NAOKFM=F Big=F
 Leave Link  301 at Thu Feb 26 00:51:42 2015, MaxMem= 1073741824 cpu:       0.3
 (Enter /apps/gaussian/g09_c01/g09/l302.exe)
 NPDir=0 NMtPBC=     1 NCelOv=     1 NCel=       1 NClECP=     1 NCelD=      1
         NCelK=      1 NCelE2=     1 NClLst=     1 CellRange=     0.0.
 One-electron integrals computed using PRISM.
 NBasis=   230 RedAO= T  NBF=   230
 NBsUse=   230 1.00D-06 NBFU=   230
 Precomputing XC quadrature grid using
 IXCGrd= 2 IRadAn=           5 IRanWt=          -1 IRanGd=           0 AccXCQ= 0.00D+00.
 NRdTot=     686 NPtTot=      184910 NUsed=      189829 NTot=      189861
 NSgBfM=   260   260   260   260   260 NAtAll=     8     8.
 Leave Link  302 at Thu Feb 26 00:51:43 2015, MaxMem= 1073741824 cpu:       1.7
 (Enter /apps/gaussian/g09_c01/g09/l303.exe)
 DipDrv:  MaxL=1.
 Leave Link  303 at Thu Feb 26 00:51:43 2015, MaxMem= 1073741824 cpu:       0.2
 (Enter /apps/gaussian/g09_c01/g09/l401.exe)
 Initial guess read from the read-write file.
 B after Tr=     0.000000    0.000000    0.000000
         Rot=    1.000000    0.000000    0.000000    0.000000 Ang=   0.00 deg.
 Guess basis will be translated and rotated to current coordinates.
 Initial guess orbital symmetries:
       Occupied  (A) (A) (A) (A) (E) (E) (A) (E) (E)
       Virtual   (A) (A) (E) (E) (E) (E) (A) (E) (E) (A) (A) (E)
                 (E) (A) (E) (E) (E) (E) (A) (E) (E) (A) (A) (A)
                 (E) (E) (A) (E) (E) (E) (E) (A) (E) (E) (A) (A)
                 (E) (E) (A) (E) (E) (A) (E) (E) (E) (E) (E) (E)
                 (A) (A) (A) (E) (E) (A) (E) (E) (A) (E) (E) (A)
                 (E) (E) (A) (A) (E) (E) (E) (E) (A) (A) (E) (E)
                 (E) (E) (A) (E) (E) (A) (E) (E) (E) (E) (E) (E)
                 (A) (E) (E) (A) (A) (E) (E) (A) (E) (E) (E) (E)
                 (A) (A) (E) (E) (A) (E) (E) (A) (A) (E) (E) (A)
                 (E) (E) (A) (E) (E) (A) (E) (E) (A) (E) (E) (A)
                 (E) (E) (E) (E) (A) (E) (E) (A) (E) (E) (A) (A)
                 (E) (E) (A) (A) (E) (E) (A) (E) (E) (A) (E) (E)
                 (A) (E) (E) (A) (E) (E) (E) (E) (A) (E) (E) (A)
                 (A) (E) (E) (E) (E) (E) (E) (A) (A) (E) (E) (A)
                 (A) (E) (E) (A) (E) (E) (E) (E) (E) (E) (A) (A)
                 (E) (E) (A) (E) (E) (E) (E) (A) (A) (E) (E) (A)
                 (A) (E) (E) (A) (E) (E) (E) (E) (A) (A) (E) (E)
                 (E) (E) (A) (A) (E) (E) (A) (A) (E) (E) (A) (E)
                 (E) (E) (E) (A) (A)
 The electronic state of the initial guess is 1-A.
 Leave Link  401 at Thu Feb 26 00:51:43 2015, MaxMem= 1073741824 cpu:       1.4
 (Enter /apps/gaussian/g09_c01/g09/l502.exe)
 Closed shell SCF:
 Requested convergence on RMS density matrix=1.00D-08 within 128 cycles.
 Requested convergence on MAX density matrix=1.00D-06.
 Requested convergence on             energy=1.00D-06.
 No special actions if energy rises.
 Using DIIS extrapolation, IDIIS=  1040.
 Integral symmetry usage will be decided dynamically.
       189744 words used for storage of precomputed grid.
 IEnd=      414822 IEndB=      414822 NGot=  1073741824 MDV=  1073411503
 LenX=  1073411503 LenY=  1073343462
 Fock matrices will be formed incrementally for  20 cycles.

 Cycle   1  Pass 1  IDiag  1:
 FoFJK:  IHMeth= 1 ICntrl=     0 DoSepK=T KAlg= 1 I1Cent= 0 FoldK=F
 FoFCou: FMM=F IPFlag=           0 FMFlag=      100000 FMFlg1=           0
         NFxFlg=           0 DoJE=T BraDBF=F KetDBF=F FulRan=T
         Omega=  0.000000  0.000000  1.000000  0.000000  0.000000 ICntrl=     500 IOpCl=  0
         NMat0=    1 NMatS0=    1 NMatT0=    0 NMatD0=    1 NMtDS0=    0 NMtDT0=    0
         I1Cent=           0 NGrid=           0.
 Petite list used in FoFCou.
 E= -96.1995478420580    
 DIIS: error= 1.06D-03 at cycle   1 NSaved=   1.
 NSaved= 1 IEnMin= 1 EnMin= -96.1995478420580     IErMin= 1 ErrMin= 1.06D-03
 ErrMax= 1.06D-03 EMaxC= 1.00D-01 BMatC= 1.38D-04 BMatP= 1.38D-04
 IDIUse=3 WtCom= 9.89D-01 WtEn= 1.06D-02
 Coeff-Com:  0.100D+01
 Coeff-En:   0.100D+01
 Coeff:      0.100D+01
 Gap=     0.552 Goal=   None    Shift=    0.000
 DSYEVD returned Info=         461 IAlg= 4 N=   230 NDim=   230 NE2=     4666709 trying DSYEV.
 GapD=    0.552 DampG=2.000 DampE=1.000 DampFc=2.0000 IDamp=-1.
 RMSDP=5.04D-05 MaxDP=1.92D-03              OVMax= 2.67D-03

 Cycle   2  Pass 1  IDiag  1:
 RMSU=  3.52D-05    CP:  1.00D+00
 FoFJK:  IHMeth= 1 ICntrl=     0 DoSepK=T KAlg= 1 I1Cent= 0 FoldK=F
 E= -96.1996203629000     Delta-E=       -0.000072520842 Rises=F Damp=F
 DIIS: error= 3.05D-04 at cycle   2 NSaved=   2.
 NSaved= 2 IEnMin= 2 EnMin= -96.1996203629000     IErMin= 2 ErrMin= 3.05D-04
 ErrMax= 3.05D-04 EMaxC= 1.00D-01 BMatC= 1.33D-05 BMatP= 1.38D-04
 IDIUse=3 WtCom= 9.97D-01 WtEn= 3.05D-03
 Coeff-Com:  0.131D+00 0.869D+00
 Coeff-En:   0.000D+00 0.100D+01
 Coeff:      0.130D+00 0.870D+00
 Gap=     0.514 Goal=   None    Shift=    0.000
 DSYEVD returned Info=       27026 IAlg= 4 N=   230 NDim=   230 NE2=     4666709 trying DSYEV.
 RMSDP=1.29D-05 MaxDP=5.95D-04 DE=-7.25D-05 OVMax= 1.24D-03

 Cycle   3  Pass 1  IDiag  1:
 RMSU=  9.09D-06    CP:  1.00D+00  9.99D-01
 FoFJK:  IHMeth= 1 ICntrl=     0 DoSepK=T KAlg= 1 I1Cent= 0 FoldK=F
 E= -96.1996269142061     Delta-E=       -0.000006551306 Rises=F Damp=F
 DIIS: error= 2.19D-04 at cycle   3 NSaved=   3.
 NSaved= 3 IEnMin= 3 EnMin= -96.1996269142061     IErMin= 3 ErrMin= 2.19D-04
 ErrMax= 2.19D-04 EMaxC= 1.00D-01 BMatC= 6.26D-06 BMatP= 1.33D-05
 IDIUse=3 WtCom= 9.98D-01 WtEn= 2.19D-03
 Coeff-Com: -0.204D-01 0.402D+00 0.619D+00
 Coeff-En:   0.000D+00 0.266D+00 0.734D+00
 Coeff:     -0.203D-01 0.402D+00 0.619D+00
 Gap=     0.514 Goal=   None    Shift=    0.000
 DSYEVD returned Info=         461 IAlg= 4 N=   230 NDim=   230 NE2=     4666709 trying DSYEV.
 RMSDP=4.78D-06 MaxDP=2.00D-04 DE=-6.55D-06 OVMax= 5.46D-04

 Cycle   4  Pass 1  IDiag  1:
 RMSU=  1.49D-06    CP:  1.00D+00  1.02D+00  6.81D-01
 FoFJK:  IHMeth= 1 ICntrl=     0 DoSepK=T KAlg= 1 I1Cent= 0 FoldK=F
 E= -96.1996318152579     Delta-E=       -0.000004901052 Rises=F Damp=F
 DIIS: error= 3.01D-05 at cycle   4 NSaved=   4.
 NSaved= 4 IEnMin= 4 EnMin= -96.1996318152579     IErMin= 4 ErrMin= 3.01D-05
 ErrMax= 3.01D-05 EMaxC= 1.00D-01 BMatC= 5.77D-08 BMatP= 6.26D-06
 IDIUse=1 WtCom= 1.00D+00 WtEn= 0.00D+00
 Coeff-Com: -0.762D-02 0.107D+00 0.183D+00 0.718D+00
 Coeff:     -0.762D-02 0.107D+00 0.183D+00 0.718D+00
 Gap=     0.514 Goal=   None    Shift=    0.000
 DSYEVD returned Info=       26968 IAlg= 4 N=   230 NDim=   230 NE2=     4666709 trying DSYEV.
 RMSDP=7.88D-07 MaxDP=4.08D-05 DE=-4.90D-06 OVMax= 1.15D-04

 Cycle   5  Pass 1  IDiag  1:
 RMSU=  5.47D-07    CP:  1.00D+00  1.02D+00  6.81D-01  9.77D-01
 FoFJK:  IHMeth= 1 ICntrl=     0 DoSepK=T KAlg= 1 I1Cent= 0 FoldK=F
 E= -96.1996318614701     Delta-E=       -0.000000046212 Rises=F Damp=F
 DIIS: error= 7.38D-06 at cycle   5 NSaved=   5.
 NSaved= 5 IEnMin= 5 EnMin= -96.1996318614701     IErMin= 5 ErrMin= 7.38D-06
 ErrMax= 7.38D-06 EMaxC= 1.00D-01 BMatC= 9.93D-09 BMatP= 5.77D-08
 IDIUse=1 WtCom= 1.00D+00 WtEn= 0.00D+00
 Coeff-Com:  0.410D-03-0.275D-01-0.378D-01 0.258D+00 0.806D+00
 Coeff:      0.410D-03-0.275D-01-0.378D-01 0.258D+00 0.806D+00
 Gap=     0.514 Goal=   None    Shift=    0.000
 DSYEVD returned Info=       27026 IAlg= 4 N=   230 NDim=   230 NE2=     4666709 trying DSYEV.
 RMSDP=3.14D-07 MaxDP=1.49D-05 DE=-4.62D-08 OVMax= 2.70D-05

 Cycle   6  Pass 1  IDiag  1:
 RMSU=  1.41D-07    CP:  1.00D+00  1.02D+00  6.86D-01  1.08D+00  1.02D+00
 FoFJK:  IHMeth= 1 ICntrl=     0 DoSepK=T KAlg= 1 I1Cent= 0 FoldK=F
 E= -96.1996318701954     Delta-E=       -0.000000008725 Rises=F Damp=F
 DIIS: error= 1.16D-06 at cycle   6 NSaved=   6.
 NSaved= 6 IEnMin= 6 EnMin= -96.1996318701954     IErMin= 6 ErrMin= 1.16D-06
 ErrMax= 1.16D-06 EMaxC= 1.00D-01 BMatC= 1.22D-10 BMatP= 9.93D-09
 IDIUse=1 WtCom= 1.00D+00 WtEn= 0.00D+00
 Coeff-Com:  0.333D-03-0.982D-02-0.150D-01 0.408D-01 0.170D+00 0.814D+00
 Coeff:      0.333D-03-0.982D-02-0.150D-01 0.408D-01 0.170D+00 0.814D+00
 Gap=     0.514 Goal=   None    Shift=    0.000
 RMSDP=4.09D-08 MaxDP=1.92D-06 DE=-8.73D-09 OVMax= 4.13D-06

 Cycle   7  Pass 1  IDiag  1:
 RMSU=  2.56D-08    CP:  1.00D+00  1.02D+00  6.87D-01  1.09D+00  1.03D+00
                    CP:  1.03D+00
 FoFJK:  IHMeth= 1 ICntrl=     0 DoSepK=T KAlg= 1 I1Cent= 0 FoldK=F
 E= -96.1996318703088     Delta-E=       -0.000000000113 Rises=F Damp=F
 DIIS: error= 1.30D-07 at cycle   7 NSaved=   7.
 NSaved= 7 IEnMin= 7 EnMin= -96.1996318703088     IErMin= 7 ErrMin= 1.30D-07
 ErrMax= 1.30D-07 EMaxC= 1.00D-01 BMatC= 1.43D-12 BMatP= 1.22D-10
 IDIUse=1 WtCom= 1.00D+00 WtEn= 0.00D+00
 Coeff-Com: -0.213D-04 0.952D-03 0.136D-02-0.637D-02-0.295D-01-0.546D-01
 Coeff-Com:  0.109D+01
 Coeff:     -0.213D-04 0.952D-03 0.136D-02-0.637D-02-0.295D-01-0.546D-01
 Coeff:      0.109D+01
 Gap=     0.514 Goal=   None    Shift=    0.000
 DSYEVD returned Info=       27026 IAlg= 4 N=   230 NDim=   230 NE2=     4666709 trying DSYEV.
 RMSDP=1.28D-08 MaxDP=5.54D-07 DE=-1.13D-10 OVMax= 8.43D-07

 Cycle   8  Pass 1  IDiag  1:
 RMSU=  2.54D-09    CP:  1.00D+00  1.02D+00  6.87D-01  1.09D+00  1.04D+00
                    CP:  1.08D+00  1.12D+00
 FoFJK:  IHMeth= 1 ICntrl=     0 DoSepK=T KAlg= 1 I1Cent= 0 FoldK=F
 E= -96.1996318703104     Delta-E=       -0.000000000002 Rises=F Damp=F
 DIIS: error= 1.73D-08 at cycle   8 NSaved=   8.
 NSaved= 8 IEnMin= 8 EnMin= -96.1996318703104     IErMin= 8 ErrMin= 1.73D-08
 ErrMax= 1.73D-08 EMaxC= 1.00D-01 BMatC= 1.62D-14 BMatP= 1.43D-12
 IDIUse=1 WtCom= 1.00D+00 WtEn= 0.00D+00
 Coeff-Com: -0.348D-05 0.759D-04 0.938D-04-0.166D-03-0.418D-03-0.520D-02
 Coeff-Com: -0.761D-01 0.108D+01
 Coeff:     -0.348D-05 0.759D-04 0.938D-04-0.166D-03-0.418D-03-0.520D-02
 Coeff:     -0.761D-01 0.108D+01
 Gap=     0.514 Goal=   None    Shift=    0.000
 RMSDP=1.14D-09 MaxDP=4.25D-08 DE=-1.62D-12 OVMax= 1.04D-07

 SCF Done:  E(RCAM-B3LYP) =  -96.1996318703     A.U. after    8 cycles
             Convg  =    0.1136D-08             -V/T =  2.0062
 KE= 9.560988337469D+01 PE=-3.138981395926D+02 EE= 7.415860630902D+01
 Leave Link  502 at Thu Feb 26 00:52:02 2015, MaxMem= 1073741824 cpu:     152.4
 (Enter /apps/gaussian/g09_c01/g09/l801.exe)
 Range of M.O.s used for correlation:     1   230
 NBasis=   230 NAE=     9 NBE=     9 NFC=     0 NFV=     0
 NROrb=    230 NOA=     9 NOB=     9 NVA=   221 NVB=   221

 **** Warning!!: The largest alpha MO coefficient is  0.56501675D+02

 Leave Link  801 at Thu Feb 26 00:52:02 2015, MaxMem= 1073741824 cpu:       0.1
 (Enter /apps/gaussian/g09_c01/g09/l1002.exe)
 Minotr:  Closed shell wavefunction.
          Direct CPHF calculation.
          Differentiating once with respect to electric field.
                with respect to dipole field.
          Electric field/nuclear overlap derivatives assumed to be zero.
          Using symmetry in CPHF.
          Requested convergence is 1.0D-08 RMS, and 1.0D-07 maximum.
          Secondary convergence is 1.0D-12 RMS, and 1.0D-12 maximum.
          NewPWx=F KeepS1=T KeepF1=T KeepIn=T MapXYZ=F SortEE=F KeepMc=T.
          MDV=    1073741756 using IRadAn=       1.
 Generate precomputed XC quadrature information.
          Solving linear equations simultaneously, MaxMat=       0.
          There are     3 degrees of freedom in the 1st order CPHF.  IDoFFX=0.
      3 vectors produced by pass  0 Test12= 6.63D-14 3.33D-08 XBig12= 7.30D+00 1.01D+00.
 AX will form     3 AO Fock derivatives at one time.
 FoFJK:  IHMeth= 1 ICntrl=     0 DoSepK=T KAlg= 1 I1Cent= 0 FoldK=F
 FoFCou: FMM=F IPFlag=           0 FMFlag=      100000 FMFlg1=           0
         NFxFlg=           0 DoJE=T BraDBF=F KetDBF=F FulRan=T
         Omega=  0.000000  0.000000  1.000000  0.000000  0.000000 ICntrl=     500 IOpCl=  0
         NMat0=    3 NMatS0=    3 NMatT0=    0 NMatD0=    3 NMtDS0=    0 NMtDT0=    0
         I1Cent=           0 NGrid=           0.
 Symmetry not used in FoFCou.
      3 vectors produced by pass  1 Test12= 6.63D-14 3.33D-08 XBig12= 3.35D-01 2.38D-01.
 FoFJK:  IHMeth= 1 ICntrl=     0 DoSepK=T KAlg= 1 I1Cent= 0 FoldK=F
      3 vectors produced by pass  2 Test12= 6.63D-14 3.33D-08 XBig12= 5.89D-02 5.75D-02.
 FoFJK:  IHMeth= 1 ICntrl=     0 DoSepK=T KAlg= 1 I1Cent= 0 FoldK=F
      3 vectors produced by pass  3 Test12= 6.63D-14 3.33D-08 XBig12= 2.76D-03 1.16D-02.
 FoFJK:  IHMeth= 1 ICntrl=     0 DoSepK=T KAlg= 1 I1Cent= 0 FoldK=F
      3 vectors produced by pass  4 Test12= 6.63D-14 3.33D-08 XBig12= 6.40D-04 4.86D-03.
 FoFJK:  IHMeth= 1 ICntrl=     0 DoSepK=T KAlg= 1 I1Cent= 0 FoldK=F
      3 vectors produced by pass  5 Test12= 6.63D-14 3.33D-08 XBig12= 1.74D-05 1.06D-03.
 FoFJK:  IHMeth= 1 ICntrl=     0 DoSepK=T KAlg= 1 I1Cent= 0 FoldK=F
      3 vectors produced by pass  6 Test12= 6.63D-14 3.33D-08 XBig12= 4.15D-07 1.28D-04.
 FoFJK:  IHMeth= 1 ICntrl=     0 DoSepK=T KAlg= 1 I1Cent= 0 FoldK=F
      3 vectors produced by pass  7 Test12= 6.63D-14 3.33D-08 XBig12= 1.20D-08 3.09D-05.
 FoFJK:  IHMeth= 1 ICntrl=     0 DoSepK=T KAlg= 1 I1Cent= 0 FoldK=F
      3 vectors produced by pass  8 Test12= 6.63D-14 3.33D-08 XBig12= 9.32D-11 2.01D-06.
 FoFJK:  IHMeth= 1 ICntrl=     0 DoSepK=T KAlg= 1 I1Cent= 0 FoldK=F
      1 vectors produced by pass  9 Test12= 6.63D-14 3.33D-08 XBig12= 6.52D-13 2.09D-07.
 FoFJK:  IHMeth= 1 ICntrl=     0 DoSepK=T KAlg= 1 I1Cent= 0 FoldK=F
 Inverted reduced A of dimension    28 with in-core refinement.
 End of Minotr Frequency-dependent properties file   721 does not exist.
 End of Minotr Frequency-dependent properties file   722 does not exist.
 Leave Link 1002 at Thu Feb 26 00:53:20 2015, MaxMem= 1073741824 cpu:     620.3
 (Enter /apps/gaussian/g09_c01/g09/l1101.exe)
 Using compressed storage, NAtomX=     8.
 Will process   9 centers per pass.
 Leave Link 1101 at Thu Feb 26 00:53:20 2015, MaxMem= 1073741824 cpu:       1.8
 (Enter /apps/gaussian/g09_c01/g09/l1102.exe)
 Symmetrizing basis deriv contribution to polar:
 IMax=3 JMax=2 DiffMx= 0.00D+00
 Leave Link 1102 at Thu Feb 26 00:53:20 2015, MaxMem= 1073741824 cpu:       0.2
 (Enter /apps/gaussian/g09_c01/g09/l1110.exe)
 Forming Gx(P) for the SCF density, NAtomX=     8.
[...]
      5        7           0.000000000    0.000000000   -0.000000063
      6        1           0.000000031    0.000000107    0.000000078
      7        1          -0.000000108   -0.000000027    0.000000078
      8        1           0.000000077   -0.000000080    0.000000078
 -------------------------------------------------------------------
 Cartesian Forces:  Max     0.000000299 RMS     0.000000093
 Force constants in Cartesian coordinates: 
                1             2             3             4             5 
      1  0.636845D+00
      2  0.000000D+00  0.636845D+00
      3  0.000000D+00  0.000000D+00  0.424501D+00
      4 -0.542270D-01 -0.241559D-01 -0.785178D-02  0.492753D-01
      5 -0.241561D-01 -0.311538D+00 -0.843412D-01  0.257864D-01  0.323953D+00
      6 -0.646006D-02 -0.693850D-01 -0.737983D-01  0.807696D-02  0.867632D-01
      7 -0.226290D+00  0.123497D+00 -0.691157D-01  0.463039D-02 -0.305576D-02
      8  0.123497D+00 -0.139474D+00  0.489705D-01  0.232944D-01 -0.127371D-01
      9 -0.568592D-01  0.402870D-01 -0.737983D-01  0.929471D-02 -0.426960D-02
     10 -0.268129D+00 -0.993405D-01  0.769675D-01  0.368364D-03  0.595079D-03
     11 -0.993407D-01 -0.976349D-01  0.353707D-01 -0.257551D-01 -0.847506D-02
     12  0.633192D-01  0.290979D-01 -0.737983D-01 -0.992293D-02 -0.248114D-02
     13 -0.987452D-01  0.000000D+00  0.000000D+00 -0.533965D-03  0.736527D-03
     14  0.000000D+00 -0.987449D-01  0.000000D+00  0.736562D-03  0.731281D-02
     15  0.000000D+00  0.000000D+00 -0.165459D+00  0.348384D-03  0.374387D-02
     16  0.385002D-03  0.587530D-03 -0.214594D-03  0.358599D-03  0.475031D-04
     17  0.587604D-03  0.664609D-02 -0.230643D-02  0.475000D-04  0.864490D-03
     18 -0.315776D-02 -0.339383D-01 -0.125490D-01  0.200297D-03  0.215165D-02
     19  0.558971D-02  0.241728D-02  0.210466D-02  0.159479D-03  0.317063D-03
     20  0.241738D-02  0.144141D-02  0.967338D-03  0.744141D-03  0.214438D-03
     21  0.309703D-01  0.142345D-01 -0.125489D-01  0.303542D-03 -0.818478D-03
     22  0.457192D-02 -0.300500D-02 -0.189011D-02 -0.311772D-04 -0.270920D-03
     23 -0.300486D-02  0.245916D-02  0.133903D-02 -0.698012D-03  0.404969D-03
     24 -0.278126D-01  0.197038D-01 -0.125489D-01 -0.449131D-03 -0.748463D-03
                6             7             8             9            10 
      6  0.883126D-01
      7  0.281274D-02  0.232952D+00
      8  0.983408D-02 -0.131832D+00  0.140276D+00
      9  0.518764D-02  0.711007D-01 -0.503765D-01  0.883126D-01
     10 -0.949772D-03 -0.171588D-01 -0.107144D-01  0.711019D-02  0.277615D+00
     11  0.101843D-01  0.156357D-01  0.905210D-02 -0.735294D-02  0.106046D+00
     12  0.518764D-02 -0.834493D-02 -0.591465D-02  0.518764D-02 -0.791776D-01
     13 -0.349264D-02  0.471328D-02 -0.376606D-02 -0.307609D-01  0.598913D-02
     14 -0.375361D-01 -0.376607D-02  0.206564D-02  0.217927D-01  0.302950D-02
     15 -0.209747D-01  0.306810D-02 -0.217370D-02 -0.209747D-01 -0.341667D-02
     16  0.173722D-03 -0.258817D-03 -0.502638D-03 -0.686117D-03 -0.123627D-03
     17  0.186730D-02 -0.755594D-04  0.632733D-03  0.532489D-03  0.217544D-03
     18 -0.658150D-02 -0.860593D-03  0.146364D-03  0.133323D-02  0.872754D-03
     19 -0.118090D-03  0.715492D-03  0.266922D-03 -0.729771D-03  0.779155D-03
     20 -0.860440D-03 -0.160170D-03 -0.341700D-03  0.470822D-03  0.195305D-03
     21  0.133323D-02 -0.423623D-03  0.763191D-03  0.133334D-02 -0.196353D-02
     22 -0.428581D-04  0.696880D-03 -0.242806D-03  0.153026D-02  0.660213D-03
     23 -0.867411D-03 -0.242810D-03  0.526210D-03 -0.108410D-02 -0.279639D-04
     24  0.133334D-02  0.176323D-02 -0.124929D-02 -0.658150D-02  0.557051D-03
               11            12            13            14            15 
     11  0.956130D-01
     12 -0.363868D-01  0.883126D-01
     13  0.302951D-02  0.342535D-01  0.730396D+00
     14  0.789860D-03  0.157433D-01  0.000000D+00  0.730396D+00
     15 -0.157028D-02 -0.209747D-01  0.000000D+00  0.000000D+00  0.529266D+00
     16  0.644636D-03  0.772629D-03 -0.662801D-01 -0.277142D-01 -0.102816D-01
     17  0.497419D-03  0.396589D-03 -0.277141D-01 -0.361599D+00 -0.110513D+00
     18 -0.147272D-04  0.133334D-02 -0.108860D-01 -0.117012D+00 -0.100294D+00
     19  0.195308D-03 -0.170399D-02 -0.311771D+00 -0.114020D+00  0.100848D+00
     20  0.443935D-03 -0.783200D-03 -0.114020D+00 -0.116109D+00  0.463525D-01
     21 -0.902362D-03 -0.658150D-02  0.106779D+00  0.490785D-01 -0.100294D+00
     22 -0.455042D-03  0.804208D-03 -0.263768D+00  0.141734D+00 -0.905664D-01
     23 -0.286296D-03  0.327950D-03  0.141734D+00 -0.164111D+00  0.641607D-01
     24  0.672114D-03  0.133323D-02 -0.958926D-01  0.679337D-01 -0.100294D+00
               16            17            18            19            20 
     16  0.607459D-01
     17  0.301445D-01  0.381957D+00
     18  0.112104D-01  0.120500D+00  0.105145D+00
     19 -0.191052D-03 -0.553843D-03 -0.772030D-03  0.327760D+00
     20 -0.322469D-01 -0.117216D-01  0.142776D-01  0.124016D+00  0.114943D+00
     21 -0.137253D-01 -0.400653D-02  0.580682D-02 -0.109961D+00 -0.505415D-01
     22  0.536418D-02 -0.265347D-02  0.339287D-02 -0.230421D-01  0.190538D-01
     23  0.290396D-01 -0.172768D-01  0.138897D-01 -0.126392D-01  0.111294D-01
     24  0.127508D-01 -0.647020D-02  0.580682D-02  0.103324D-01 -0.988316D-02
               21            22            23            24 
     21  0.105145D+00
     22 -0.119787D-01  0.275548D+00
     23 -0.780739D-02 -0.154161D+00  0.167155D+00
     24  0.580682D-02  0.987508D-01 -0.699585D-01  0.105145D+00
 Red2BG is reusing G-inverse.
 Force constants in internal coordinates: 
                1             2             3             4             5 
      1  0.354834D+00
      2  0.204560D-02  0.354835D+00
      3  0.204562D-02  0.204559D-02  0.354834D+00
      4  0.372228D-02  0.372224D-02  0.372212D-02  0.277775D+00
      5 -0.130954D-02  0.351745D-03  0.351506D-03  0.554692D-02  0.429763D+00
      6  0.351757D-03  0.351527D-03 -0.130949D-02  0.554685D-02  0.295466D-02
      7  0.351504D-03 -0.130954D-02  0.351748D-03  0.554686D-02  0.295465D-02
      8  0.376124D-02  0.376235D-02 -0.127101D-02 -0.255886D-01  0.523887D-04
      9  0.376234D-02 -0.127101D-02  0.376127D-02 -0.255886D-01  0.524360D-04
     10  0.707067D-03 -0.361464D-02 -0.361500D-02  0.266934D-01  0.235482D-02
     11 -0.127101D-02  0.376125D-02  0.376236D-02 -0.255886D-01  0.969682D-03
     12 -0.361494D-02  0.707000D-03 -0.361468D-02  0.266934D-01 -0.173823D-02
     13 -0.361466D-02 -0.361491D-02  0.707104D-03  0.266934D-01 -0.173749D-02
     14  0.616228D-03  0.126875D-03  0.126949D-03  0.139876D-01 -0.458620D-02
     15  0.126870D-03  0.126933D-03  0.616213D-03  0.139876D-01 -0.421392D-02
     16  0.126915D-03  0.616212D-03  0.126915D-03  0.139876D-01 -0.421359D-02
     17 -0.398010D-03 -0.133375D-03 -0.397994D-03 -0.149415D-01  0.680884D-02
     18 -0.397960D-03 -0.398004D-03 -0.133386D-03 -0.149415D-01  0.681119D-02
     19 -0.133373D-03 -0.397972D-03 -0.398032D-03 -0.149415D-01  0.281143D-03
     20  0.000000D+00 -0.284469D-02  0.284463D-02  0.000000D+00  0.168016D-05
     21  0.000000D+00 -0.284192D-02  0.284327D-02  0.000000D+00  0.268051D-02
     22  0.205827D-05 -0.284326D-02  0.284183D-02  0.000000D+00 -0.268036D-02
     23  0.284325D-02  0.000000D+00 -0.284195D-02  0.000000D+00  0.419418D-03
     24  0.284183D-02  0.206899D-05 -0.284331D-02  0.000000D+00  0.309824D-02
     25  0.284459D-02  0.000000D+00 -0.284475D-02  0.000000D+00 -0.226262D-02
     26 -0.284328D-02  0.284181D-02  0.209015D-05  0.000000D+00 -0.416538D-03
     27 -0.284471D-02  0.284459D-02  0.000000D+00  0.000000D+00  0.226229D-02
     28 -0.284195D-02  0.284324D-02  0.000000D+00  0.000000D+00 -0.309857D-02
                6             7             8             9            10 
      6  0.429763D+00
      7  0.295463D-02  0.429763D+00
      8  0.969670D-03  0.524303D-04  0.530900D-01
      9  0.523817D-04  0.969679D-03  0.122555D-01  0.530900D-01
     10 -0.173823D-02 -0.173746D-02 -0.459667D-01 -0.459649D-01  0.133208D+00
     11  0.524202D-04  0.523870D-04  0.122555D-01  0.122555D-01  0.109802D-01
     12 -0.173745D-02  0.235482D-02 -0.459649D-01  0.109802D-01 -0.243808D-01
     13  0.235482D-02 -0.173825D-02  0.109802D-01 -0.459667D-01 -0.243808D-01
     14 -0.421365D-02 -0.421389D-02 -0.388172D-02 -0.388205D-02  0.171118D-01
     15 -0.458624D-02 -0.421360D-02  0.351574D-02 -0.388172D-02 -0.634019D-02
     16 -0.421389D-02 -0.458624D-02 -0.388206D-02  0.351574D-02 -0.634014D-02
     17  0.681123D-02  0.281137D-03  0.570266D-03  0.339719D-02 -0.453103D-02
     18  0.281164D-03  0.680884D-02  0.339719D-02  0.570265D-03 -0.453113D-02
     19  0.680886D-02  0.681121D-02  0.570274D-03  0.570268D-03  0.432852D-02
     20 -0.226262D-02  0.226228D-02 -0.589537D-02  0.589452D-02  0.000000D+00
     21  0.419400D-03 -0.309858D-02 -0.541924D-02  0.494249D-02  0.155337D-02
     22  0.309824D-02 -0.416547D-03 -0.494334D-02  0.541862D-02 -0.155138D-02
     23 -0.309857D-02  0.268051D-02  0.494249D-02  0.476127D-03  0.743876D-02
     24 -0.416548D-03 -0.268035D-02  0.541861D-02 -0.475900D-03  0.899118D-02
     25  0.226229D-02  0.168350D-05  0.589452D-02  0.000000D+00  0.588643D-02
     26 -0.268034D-02  0.309823D-02 -0.475905D-03 -0.494335D-02 -0.743913D-02
     27  0.167452D-05 -0.226262D-02  0.000000D+00 -0.589537D-02 -0.588671D-02
     28  0.268051D-02  0.419408D-03  0.476126D-03 -0.541925D-02 -0.899147D-02
               11            12            13            14            15 
     11  0.530900D-01
     12 -0.459667D-01  0.133208D+00
     13 -0.459649D-01 -0.243808D-01  0.133208D+00
     14  0.351574D-02 -0.634016D-02 -0.634016D-02  0.100596D+00
     15 -0.388205D-02 -0.634016D-02  0.171118D-01 -0.181171D-01  0.100596D+00
     16 -0.388173D-02  0.171118D-01 -0.634020D-02 -0.181171D-01 -0.181172D-01
     17  0.570271D-03  0.432852D-02 -0.453113D-02 -0.408515D-01 -0.408515D-01
     18  0.570272D-03 -0.453105D-02  0.432853D-02 -0.408515D-01  0.129521D-01
     19  0.339719D-02 -0.453114D-02 -0.453104D-02  0.129521D-01 -0.408515D-01
     20  0.000000D+00 -0.588671D-02  0.588641D-02  0.000000D+00 -0.252743D-02
     21  0.476129D-03 -0.899147D-02  0.743875D-02  0.406527D-02  0.153810D-02
     22 -0.475901D-03 -0.743915D-02  0.899117D-02 -0.406565D-02  0.560353D-02
     23 -0.541925D-02  0.155336D-02 -0.899145D-02  0.153809D-02 -0.560353D-02
     24 -0.494335D-02 -0.155140D-02 -0.743912D-02  0.560351D-02 -0.153801D-02
     25 -0.589538D-02  0.000000D+00 -0.588669D-02 -0.252740D-02  0.252742D-02
     26  0.541861D-02  0.899119D-02 -0.155139D-02 -0.153800D-02 -0.406567D-02
     27  0.589452D-02  0.588644D-02  0.000000D+00  0.252742D-02  0.000000D+00
     28  0.494249D-02  0.743876D-02  0.155336D-02 -0.560350D-02  0.406529D-02
               16            17            18            19            20 
     16  0.100596D+00
     17  0.129521D-01  0.541354D-01
     18 -0.408515D-01  0.965192D-02  0.541355D-01
     19 -0.408515D-01  0.965192D-02  0.965192D-02  0.541354D-01
     20  0.252742D-02 -0.723625D-02  0.723634D-02  0.000000D+00  0.144502D-01
     21 -0.560352D-02  0.610008D-02  0.568193D-03 -0.666811D-02  0.354264D-02
     22 -0.153801D-02 -0.568076D-03 -0.610002D-02  0.666823D-02  0.354274D-02
     23  0.406529D-02 -0.666810D-02  0.610008D-02  0.568187D-03  0.398476D-02
     24 -0.406565D-02  0.666823D-02 -0.568065D-03 -0.610001D-02 -0.692280D-02
     25  0.000000D+00  0.000000D+00 -0.723627D-02  0.723633D-02 -0.692270D-02
     26  0.560352D-02 -0.610000D-02  0.666823D-02 -0.568066D-03  0.398485D-02
     27 -0.252742D-02  0.723633D-02  0.000000D+00 -0.723626D-02 -0.692271D-02
     28  0.153809D-02  0.568172D-03 -0.666812D-02  0.610008D-02 -0.692260D-02
               21            22            23            24            25 
     21  0.150938D-01
     22  0.386453D-02  0.150940D-01
     23 -0.724448D-02 -0.756637D-02  0.150938D-01
     24  0.430664D-02 -0.724459D-02  0.386453D-02  0.150940D-01
     25 -0.692259D-02  0.398487D-02  0.354264D-02  0.354274D-02  0.144502D-01
     26 -0.756638D-02 -0.724460D-02  0.430664D-02 -0.724459D-02 -0.692282D-02
     27  0.398474D-02 -0.692282D-02 -0.692260D-02  0.398485D-02 -0.692271D-02
     28 -0.724449D-02  0.430664D-02 -0.724449D-02 -0.756638D-02  0.398475D-02
               26            27            28 
     26  0.150940D-01
     27  0.354275D-02  0.144502D-01
     28  0.386452D-02  0.354264D-02  0.150938D-01
 Leave Link  716 at Thu Feb 26 01:15:27 2015, MaxMem= 1073741824 cpu:       0.1
 (Enter /apps/gaussian/g09_c01/g09/l9999.exe)
 1\1\GINC-CX1-3-15-4\Freq\RCAM-B3LYP\Aug-CC-pVTZ\C1H6N1(1+)\JMF02\26-Fe
 b-2015\0\\#p opt(VeryTight,CalcAll,Raman) Integral(Grid=UltraFine) CAM
 -b3lyp/AUG-cc-pVTZ\\Autjob by noodles.sh | Great noodly basis sets\\1,
 1\C,-0.0000000526,0.0000000526,-0.7949341314\H,-0.0953781125,-1.024883
 8934,-1.1369272133\H,-0.8398865559,0.5950418485,-1.1369272133\H,0.9352
 645105,0.4298422029,-1.1369272133\N,-0.0000000526,0.0000000526,0.70862
 34692\H,0.0881473252,0.9473502432,1.0813304423\H,-0.8645030729,-0.3973
 371741,1.0813304423\H,0.7763555897,-0.5500129112,1.0813304423\\Version
 =EM64L-G09RevC.01\State=1-A\HF=-96.1996321\RMSD=7.697e-09\RMSF=9.264e-
 08\ZeroPoint=0.0795799\Thermal=0.0830433\Dipole=0.,0.,0.8569481\Dipole
 Deriv=0.0817414,0.0000045,0.000004,0.0000005,0.0817396,0.0000006,-0.00
 00018,-0.0000016,0.5472401,0.1220844,-0.0077302,0.0010807,-0.0077274,0
 .0397534,0.0116239,0.0035138,0.0377522,0.0538111,0.06703,0.039513,0.00
 95259,0.0395148,0.0948096,-0.0067478,0.0309378,-0.0219195,0.053811,0.0
 536418,-0.0317876,-0.010609,-0.0317853,0.1081947,-0.0048769,-0.0344511
 ,-0.0158327,0.0538118,-0.1613756,0.0000026,0.0000021,-0.0000009,-0.161
 3785,0.0000009,-0.0000013,-0.0000002,-0.4099405,0.2491701,0.0055911,0.
 0045065,0.0055929,0.3087493,0.0484291,0.0034676,0.0372668,0.2337552,0.
 2986971,0.0230012,-0.0441942,0.0230029,0.2592225,-0.0203121,-0.0340068
 ,-0.0156297,0.2337554,0.2890117,-0.0285945,0.0396871,-0.0285943,0.2689
 078,-0.0281169,0.0305401,-0.0216362,0.2337551\Polar=19.1627255,0.00001
 26,19.1627137,0.0000333,-0.000012,22.103573\PolarDeriv=-0.8771225,-3.0
 688169,0.8768964,2.1968835,-0.000079,-0.0000271,-3.0691446,0.8772126,3
 .0680802,0.0001738,2.1968059,-0.0001157,2.47711,-0.0000851,2.47721,0.0
 001409,0.000058,-3.5890491,-0.207495,-0.6220985,-0.4512722,-0.8129929,
 -0.1077985,-0.2206404,-1.0465401,-0.4129524,-6.0320885,-0.107897,-1.96
 18523,-2.3694885,-0.7867048,-0.0812614,-1.6489309,-0.1349579,-1.449350
 4,-1.4823363,-3.9095916,1.8400463,-1.8924451,-1.5809736,0.5511325,-1.9
 416782,2.0857185,-1.5437188,2.0249005,0.5512034,-1.1932325,1.3758351,-
 1.3632386,0.4139816,-1.0727919,-1.1877838,0.8414046,-1.4824127,4.91937
 59,1.5881103,1.5417312,-1.7677199,-0.4434858,2.1623232,1.7671358,1.154
 4004,1.2021974,-0.44338,-1.0065399,0.9938148,-1.5038573,-0.3328449,-0.
 9322013,1.3225201,0.6078847,-1.4823922,0.6074112,2.1246901,-0.6075022,
 -2.1406712,0.0003802,0.0001125,2.1247097,-0.6073328,-2.1250645,-0.0001
 297,-2.1406856,0.0000804,-1.8637527,0.0002668,-1.8639288,0.000038,0.00
 00403,2.5695867,0.1951247,0.6349,0.31613,0.7526443,0.1155502,0.2195093
 ,0.8711096,0.294368,4.6235487,0.1155148,1.9842019,2.3604783,0.5781984,
 0.0816268,1.4488315,0.136414,1.4675864,1.8221743,-3.8303621,-1.147157,
 -1.1836776,1.7764197,0.4754167,-2.1538673,-1.2464242,-0.9683068,-1.058
 0895,0.475586,0.9606043,-0.9902316,1.3018801,0.3361999,0.7251407,-1.33
 90881,-0.6157045,1.8221985,3.1026781,-1.3497029,1.4000179,1.5763926,-0
 .5911164,1.934258,-1.4866176,1.2063166,-1.703336,-0.5910796,1.1607123,
 -1.3704131,1.1604469,-0.4178504,0.8666595,1.2027295,-0.8519282,1.82229
 21\HyperPolar=0.4797907,1.675536,-0.479359,-1.6783316,-2.5765092,-0.00
 0212,-2.5765899,0.0002363,0.0000944,4.5059463\PG=C03 [C3(C1N1),X(H6)]\
 NImag=0\\0.63684523,-0.00000039,0.63684521,-0.00000014,-0.00000007,0.4
 2450054,-0.05422700,-0.02415590,-0.00785178,0.04927534,-0.02415609,-0.
 31153758,-0.08434116,0.02578644,0.32395297,-0.00646006,-0.06938498,-0.
 07379828,0.00807696,0.08676323,0.08831265,-0.22629028,0.12349683,-0.06
 911570,0.00463039,-0.00305576,0.00281274,0.23295185,0.12349684,-0.1394
 7448,0.04897046,0.02329437,-0.01273708,0.00983408,-0.13183212,0.140276
 46,-0.05685918,0.04028704,-0.07379828,0.00929471,-0.00426960,0.0051876
 4,0.07110068,-0.05037647,0.08831265,-0.26812949,-0.09934054,0.07696752
 ,0.00036836,0.00059508,-0.00094977,-0.01715879,-0.01071439,0.00711019,
 0.27761527,-0.09934072,-0.09763486,0.03537072,-0.02575505,-0.00847506,
 0.01018425,0.01563575,0.00905210,-0.00735294,0.10604568,0.09561303,0.0
 6331919,0.02909791,-0.07379835,-0.00992293,-0.00248114,0.00518764,-0.0
 0834493,-0.00591465,0.00518764,-0.07917764,-0.03638676,0.08831265,-0.0
 9874521,0.00000017,0.00000016,-0.00053396,0.00073653,-0.00349264,0.004
 71328,-0.00376606,-0.03076085,0.00598913,0.00302951,0.03425346,0.73039
 613,-0.00000008,-0.09874492,0.00000016,0.00073656,0.00731281,-0.037536
 06,-0.00376607,0.00206564,0.02179274,0.00302950,0.00078986,0.01574331,
 -0.00000003,0.73039586,0.00000037,0.00000017,-0.16545898,0.00034838,0.
 00374387,-0.02097475,0.00306810,-0.00217370,-0.02097470,-0.00341667,-0
 .00157028,-0.02097468,0.00000006,0.00000005,0.52926599,0.00038500,0.00
 058753,-0.00021459,0.00035860,0.00004750,0.00017372,-0.00025882,-0.000
 50264,-0.00068612,-0.00012363,0.00064464,0.00077263,-0.06628006,-0.027
 71424,-0.01028158,0.06074588,0.00058760,0.00664609,-0.00230643,0.00004
 750,0.00086449,0.00186730,-0.00007556,0.00063273,0.00053249,0.00021754
 ,0.00049742,0.00039659,-0.02771414,-0.36159937,-0.11051317,0.03014447,
 0.38195692,-0.00315776,-0.03393829,-0.01254897,0.00020030,0.00215165,-
 0.00658150,-0.00086059,0.00014636,0.00133323,0.00087275,-0.00001473,0.
 00133334,-0.01088604,-0.11701231,-0.10029429,0.01121043,0.12049997,0.1
 0514458,0.00558971,0.00241728,0.00210466,0.00015948,0.00031706,-0.0001
 1809,0.00071549,0.00026692,-0.00072977,0.00077916,0.00019531,-0.001703
 99,-0.31177084,-0.11401987,0.10084799,-0.00019105,-0.00055384,-0.00077
 203,0.32776004,0.00241738,0.00144141,0.00096734,0.00074414,0.00021444,
 -0.00086044,-0.00016017,-0.00034170,0.00047082,0.00019530,0.00044393,-
 0.00078320,-0.11401999,-0.11610867,0.04635248,-0.03224689,-0.01172159,
 0.01427759,0.12401623,0.11494276,0.03097029,0.01423450,-0.01254886,0.0
 0030354,-0.00081848,0.00133323,-0.00042362,0.00076319,0.00133334,-0.00
 196353,-0.00090236,-0.00658150,0.10677853,0.04907854,-0.10029431,-0.01
 372527,-0.00400653,0.00580682,-0.10996125,-0.05054147,0.10514458,0.004
 57192,-0.00300500,-0.00189011,-0.00003118,-0.00027092,-0.00004286,0.00
 069688,-0.00024281,0.00153026,0.00066021,-0.00045504,0.00080421,-0.263
 76841,0.14173412,-0.09056645,0.00536418,-0.00265347,0.00339287,-0.0230
 4209,0.01905384,-0.01197874,0.27554828,-0.00300486,0.00245916,0.001339
 03,-0.00069801,0.00040497,-0.00086741,-0.00024281,0.00052621,-0.001084
 10,-0.00002796,-0.00028630,0.00032795,0.14173413,-0.16411118,0.0641606
 9,0.02903957,-0.01727682,0.01388970,-0.01263921,0.01112945,-0.00780739
 ,-0.15416070,0.16715452,-0.02781259,0.01970377,-0.01254890,-0.00044913
 ,-0.00074846,0.00133334,0.00176323,-0.00124929,-0.00658150,0.00055705,
 0.00067211,0.00133323,-0.09589257,0.06793367,-0.10029433,0.01275077,-0
 .00647020,0.00580682,0.01033239,-0.00988316,0.00580682,0.09875082,-0.0
 6995850,0.10514458\\0.,0.,0.00000030,-0.00000013,-0.00000003,-0.000000
 04,0.00000004,0.00000013,-0.00000004,0.00000009,-0.00000009,-0.0000000
 4,0.,0.,0.00000006,-0.00000003,-0.00000011,-0.00000008,0.00000011,0.00
 000003,-0.00000008,-0.00000008,0.00000008,-0.00000008\\\@


 When cryptography is outlawed, bayl bhgynjf jvyy unir cevinpl.
 Job cpu time:  0 days  3 hours 58 minutes 12.4 seconds.
 File lengths (MBytes):  RWF=     48 Int=      0 D2E=      0 Chk=      4 Scr=      1
 Normal termination of Gaussian 09 at Thu Feb 26 01:15:27 2015.
