 Entering Gaussian System, Link 0=g03
 Input=MA_CAM-b3lyp_AUG-cc-pVQZ.com
 Output=MA_CAM-b3lyp_AUG-cc-pVQZ.log
 Initial command:
 /apps/gaussian/g09_c01/g09/l1.exe /tmp/pbs.8910297.cx1b/Gau-14374.inp -scrdir=/tmp/pbs.8910297.cx1b/
 Entering Link 1 = /apps/gaussian/g09_c01/g09/l1.exe PID=     14379.
  
 Copyright (c) 1988,1990,1992,1993,1995,1998,2003,2009,2011,
            Gaussian, Inc.  All Rights Reserved.
  
 This is part of the Gaussian(R) 09 program.  It is based on
 the Gaussian(R) 03 system (copyright 2003, Gaussian, Inc.),
 the Gaussian(R) 98 system (copyright 1998, Gaussian, Inc.),
 the Gaussian(R) 94 system (copyright 1995, Gaussian, Inc.),
 the Gaussian 92(TM) system (copyright 1992, Gaussian, Inc.),
 the Gaussian 90(TM) system (copyright 1990, Gaussian, Inc.),
 the Gaussian 88(TM) system (copyright 1988, Gaussian, Inc.),
 the Gaussian 86(TM) system (copyright 1986, Carnegie Mellon
 University), and the Gaussian 82(TM) system (copyright 1983,
 Carnegie Mellon University). Gaussian is a federally registered
 trademark of Gaussian, Inc.
  
 This software contains proprietary and confidential information,
 including trade secrets, belonging to Gaussian, Inc.
  
 This software is provided under written license and may be
 used, copied, transmitted, or stored only in accord with that
 written license.
  
 The following legend is applicable only to US Government
 contracts under FAR:
  
                    RESTRICTED RIGHTS LEGEND
  
 Use, reproduction and disclosure by the US Government is
 subject to restrictions as set forth in subparagraphs (a)
 and (c) of the Commercial Computer Software - Restricted
 Rights clause in FAR 52.227-19.
  
 Gaussian, Inc.
 340 Quinnipiac St., Bldg. 40, Wallingford CT 06492
  
  
 ---------------------------------------------------------------
 Warning -- This program may not be used in any manner that
 competes with the business of Gaussian, Inc. or will provide
 assistance to any competitor of Gaussian, Inc.  The licensee
 of this program is prohibited from giving any competitor of
 Gaussian, Inc. access to this program.  By using this program,
 the user acknowledges that Gaussian, Inc. is engaged in the
 business of creating and licensing software in the field of
 computational chemistry and represents and warrants to the
 licensee that it is not a competitor of Gaussian, Inc. and that
 it will not use this program in any manner prohibited above.
 ---------------------------------------------------------------
  

 Cite this work as:
 Gaussian 09, Revision C.01,
 M. J. Frisch, G. W. Trucks, H. B. Schlegel, G. E. Scuseria, 
 M. A. Robb, J. R. Cheeseman, G. Scalmani, V. Barone, B. Mennucci, 
 G. A. Petersson, H. Nakatsuji, M. Caricato, X. Li, H. P. Hratchian, 
 A. F. Izmaylov, J. Bloino, G. Zheng, J. L. Sonnenberg, M. Hada, 
 M. Ehara, K. Toyota, R. Fukuda, J. Hasegawa, M. Ishida, T. Nakajima, 
 Y. Honda, O. Kitao, H. Nakai, T. Vreven, J. A. Montgomery, Jr., 
 J. E. Peralta, F. Ogliaro, M. Bearpark, J. J. Heyd, E. Brothers, 
 K. N. Kudin, V. N. Staroverov, T. Keith, R. Kobayashi, J. Normand, 
 K. Raghavachari, A. Rendell, J. C. Burant, S. S. Iyengar, J. Tomasi, 
 M. Cossi, N. Rega, J. M. Millam, M. Klene, J. E. Knox, J. B. Cross, 
 V. Bakken, C. Adamo, J. Jaramillo, R. Gomperts, R. E. Stratmann, 
 O. Yazyev, A. J. Austin, R. Cammi, C. Pomelli, J. W. Ochterski, 
 R. L. Martin, K. Morokuma, V. G. Zakrzewski, G. A. Voth, 
 P. Salvador, J. J. Dannenberg, S. Dapprich, A. D. Daniels, 
 O. Farkas, J. B. Foresman, J. V. Ortiz, J. Cioslowski, 
 and D. J. Fox, Gaussian, Inc., Wallingford CT, 2010.
 
 ******************************************
 Gaussian 09:  EM64L-G09RevC.01 23-Sep-2011
                26-Feb-2015 
 ******************************************
 %Chk=MA_CAM-b3lyp_AUG-cc-pVQZ.chk
 %Mem=8Gb
 %nproc=8
 Will use up to    8 processors via shared memory.
 ----------------------------------------------------------------------
 #p opt(VeryTight,CalcAll,Raman) Integral(Grid=UltraFine) CAM-b3lyp/AUG
 -cc-pVQZ
 ----------------------------------------------------------------------
 1/7=1,10=4,14=-1,18=20,19=15,26=3,38=1/1,3;
 2/9=110,12=2,17=6,18=5,40=1/2;
 3/5=16,6=2,7=10,11=2,16=1,25=1,30=1,71=2,74=-40,75=-5/1,2,3;
 4//1;
 5/5=2,38=5/2;
 8/6=4,10=90,11=11/1;
 10/13=10,15=4/2;
 11/6=3,8=1,9=11,15=111,16=1/1,2,10;
 10/6=1/2;
 6/7=2,8=2,9=2,10=2,18=1,28=1/1;
 7/10=1,25=1/1,2,3,16;
 1/7=1,10=4,14=-1,18=20,19=15/3(3);
 2/9=110/2;
 7/8=1,9=1,25=1,44=-1/16;
 99//99;
 2/9=110/2;
 3/5=16,6=2,7=10,11=2,16=1,25=1,30=1,71=2,74=-40,75=-5/1,2,3;
 4/5=5,16=3/1;
 5/5=2,38=5/2;
 8/6=4,10=90,11=11/1;
 10/13=10,15=4/2;
 11/6=3,8=1,9=11,15=111,16=1/1,2,10;
 10/6=1/2;
 7/10=1,25=1/1,2,3,16;
 1/7=1,10=4,14=-1,18=20,19=15/3(-9);
 2/9=110/2;
 6/7=2,8=2,9=2,10=2,18=1,19=2,28=1/1;
 7/8=1,9=1,25=1,44=-1/16;
 99//99;
 Leave Link    1 at Thu Feb 26 00:42:28 2015, MaxMem= 1073741824 cpu:       0.3
 (Enter /apps/gaussian/g09_c01/g09/l101.exe)
 ----------------------------------------------
 Autjob by noodles.sh | Great noodly basis sets
 ----------------------------------------------
 Charge =  1 Multiplicity = 1
 Symbolic Z-Matrix:
 C                     0.        0.       -0.80446 
 H                    -0.09587  -1.03096  -1.1445 
 H                    -0.8449    0.59851  -1.1445 
 H                     0.94078   0.43245  -1.1445 
 N                     0.        0.        0.71256 
 H                     0.08865   0.95193   1.09076 
 H                    -0.86872  -0.39919   1.09076 
 H                     0.78007  -0.55274   1.09076 
 
 NAtoms=      8 NQM=        0 NQMF=       0 NMMI=      8 NMMIF=      0
                NMic=       0 NMicF=      0.
                    Isotopes and Nuclear Properties:
 (Nuclear quadrupole moments (NQMom) in fm**2, nuclear magnetic moments (NMagM)
  in nuclear magnetons)

  Atom         1           2           3           4           5           6           7           8
 IAtWgt=          12           1           1           1          14           1           1           1
 AtmWgt=  12.0000000   1.0078250   1.0078250   1.0078250  14.0030740   1.0078250   1.0078250   1.0078250
 NucSpn=           0           1           1           1           2           1           1           1
 AtZEff=   0.0000000   0.0000000   0.0000000   0.0000000   0.0000000   0.0000000   0.0000000   0.0000000
 NQMom=    0.0000000   0.0000000   0.0000000   0.0000000   2.0440000   0.0000000   0.0000000   0.0000000
 NMagM=    0.0000000   2.7928460   2.7928460   2.7928460   0.4037610   2.7928460   2.7928460   2.7928460
 Leave Link  101 at Thu Feb 26 00:42:28 2015, MaxMem= 1073741824 cpu:       0.9
 (Enter /apps/gaussian/g09_c01/g09/l103.exe)

 GradGradGradGradGradGradGradGradGradGradGradGradGradGradGradGradGradGrad
 Berny optimization.
 Initialization pass.
                           ----------------------------
                           !    Initial Parameters    !
                           ! (Angstroms and Degrees)  !
 --------------------------                            --------------------------
 ! Name  Definition              Value          Derivative Info.                !
 --------------------------------------------------------------------------------
 ! R1    R(1,2)                  1.0898         calculate D2E/DX2 analytically  !
 ! R2    R(1,3)                  1.0898         calculate D2E/DX2 analytically  !
 ! R3    R(1,4)                  1.0898         calculate D2E/DX2 analytically  !
 ! R4    R(1,5)                  1.517          calculate D2E/DX2 analytically  !
 ! R5    R(5,6)                  1.0281         calculate D2E/DX2 analytically  !
 ! R6    R(5,7)                  1.0281         calculate D2E/DX2 analytically  !
 ! R7    R(5,8)                  1.0281         calculate D2E/DX2 analytically  !
 ! A1    A(2,1,3)              110.7303         calculate D2E/DX2 analytically  !
 ! A2    A(2,1,4)              110.7304         calculate D2E/DX2 analytically  !
 ! A3    A(2,1,5)              108.1807         calculate D2E/DX2 analytically  !
 ! A4    A(3,1,4)              110.7303         calculate D2E/DX2 analytically  !
 ! A5    A(3,1,5)              108.1807         calculate D2E/DX2 analytically  !
 ! A6    A(4,1,5)              108.1807         calculate D2E/DX2 analytically  !
 ! A7    A(1,5,6)              111.5829         calculate D2E/DX2 analytically  !
 ! A8    A(1,5,7)              111.583          calculate D2E/DX2 analytically  !
 ! A9    A(1,5,8)              111.583          calculate D2E/DX2 analytically  !
 ! A10   A(6,5,7)              107.2794         calculate D2E/DX2 analytically  !
 ! A11   A(6,5,8)              107.2794         calculate D2E/DX2 analytically  !
 ! A12   A(7,5,8)              107.2794         calculate D2E/DX2 analytically  !
 ! D1    D(2,1,5,6)            179.9926         calculate D2E/DX2 analytically  !
 ! D2    D(2,1,5,7)            -60.0075         calculate D2E/DX2 analytically  !
 ! D3    D(2,1,5,8)             59.9926         calculate D2E/DX2 analytically  !
 ! D4    D(3,1,5,6)            -60.0075         calculate D2E/DX2 analytically  !
 ! D5    D(3,1,5,7)             59.9925         calculate D2E/DX2 analytically  !
 ! D6    D(3,1,5,8)            179.9926         calculate D2E/DX2 analytically  !
 ! D7    D(4,1,5,6)             59.9925         calculate D2E/DX2 analytically  !
 ! D8    D(4,1,5,7)            179.9925         calculate D2E/DX2 analytically  !
 ! D9    D(4,1,5,8)            -60.0075         calculate D2E/DX2 analytically  !
 --------------------------------------------------------------------------------
 Trust Radius=3.00D-01 FncErr=1.00D-07 GrdErr=1.00D-06
 Number of steps in this run=     38 maximum allowed number of steps=    100.
 GradGradGradGradGradGradGradGradGradGradGradGradGradGradGradGradGradGrad

 Leave Link  103 at Thu Feb 26 00:42:28 2015, MaxMem= 1073741824 cpu:       0.0
 (Enter /apps/gaussian/g09_c01/g09/l202.exe)
                          Input orientation:                          
 ---------------------------------------------------------------------
 Center     Atomic      Atomic             Coordinates (Angstroms)
 Number     Number       Type             X           Y           Z
 ---------------------------------------------------------------------
      1          6           0        0.000000    0.000000   -0.804455
      2          1           0       -0.095874   -1.030964   -1.144495
      3          1           0       -0.844904    0.598511   -1.144495
      4          1           0        0.940777    0.432453   -1.144495
      5          7           0        0.000000    0.000000    0.712562
      6          1           0        0.088649    0.951929    1.090759
      7          1           0       -0.868719   -0.399192    1.090759
      8          1           0        0.780070   -0.552736    1.090759
 ---------------------------------------------------------------------
                    Distance matrix (angstroms):
                    1          2          3          4          5
     1  C    0.000000
     2  H    1.089819   0.000000
     3  H    1.089819   1.793386   0.000000
     4  H    1.089818   1.793386   1.793386   0.000000
     5  N    1.517017   2.126203   2.126203   2.126203   0.000000
     6  H    2.122702   2.993706   2.448017   2.447925   1.028134
     7  H    2.122702   2.448017   2.447925   2.993705   1.028134
     8  H    2.122702   2.447926   2.993705   2.448016   1.028134
                    6          7          8
     6  H    0.000000
     7  H    1.655923   0.000000
     8  H    1.655923   1.655923   0.000000
 Stoichiometry    CH6N(1+)
 Framework group  C3[C3(CN),X(H6)]
 Deg. of freedom     6
 Full point group                 C3      NOp   3
 Largest Abelian subgroup         C1      NOp   1
 Largest concise Abelian subgroup C1      NOp   1
                         Standard orientation:                         
 ---------------------------------------------------------------------
 Center     Atomic      Atomic             Coordinates (Angstroms)
 Number     Number       Type             X           Y           Z
 ---------------------------------------------------------------------
      1          6           0        0.000000    0.000000   -0.804455
      2          1           0        1.030964   -0.095874   -1.144495
      3          1           0       -0.598511   -0.844904   -1.144495
      4          1           0       -0.432453    0.940778   -1.144495
      5          7           0        0.000000    0.000000    0.712562
      6          1           0       -0.951929    0.088649    1.090759
      7          1           0        0.399192   -0.868719    1.090759
      8          1           0        0.552737    0.780070    1.090759
 ---------------------------------------------------------------------
 Rotational constants (GHZ):     84.1605103     19.8694623     19.8694623
 Leave Link  202 at Thu Feb 26 00:42:28 2015, MaxMem= 1073741824 cpu:       0.0
 (Enter /apps/gaussian/g09_c01/g09/l301.exe)
 Standard basis: Aug-CC-pVQZ (5D, 7F)
 Ernie: Thresh=  0.10000D-02 Tol=  0.10000D-05 Strict=F.
 Ernie:  6 primitive shells out of 172 were deleted.
 There are   436 symmetry adapted basis functions of A   symmetry.
 Integral buffers will be    131072 words long.
 Raffenetti 2 integral format.
 Two-electron integral symmetry is turned on.
   436 basis functions,   590 primitive gaussians,   540 cartesian basis functions
     9 alpha electrons        9 beta electrons
       nuclear repulsion energy        47.5846100594 Hartrees.
 IExCor=20419 DFT=T Ex+Corr=CAM-B3LYP ExCW=0 ScaHFX=  1.000000
 ScaDFX=  1.000000  1.000000  1.000000  0.810000 ScalE2=  1.000000  1.000000
 IRadAn=      5 IRanWt=     -1 IRanGd=            0 ICorTp=0
  HFx wShort=  0.000000 wLong=  0.330000 cFull=  0.190000 cShort=  0.000000 cLong=  0.460000
  DFx wShort=  0.000000 wLong=  0.330000 cFull=  0.190000 cShort=  0.000000 cLong=  0.460000
 NAtoms=    8 NActive=    8 NUniq=    4 SFac= 4.00D+00 NAtFMM=   60 NAOKFM=F Big=F
 Leave Link  301 at Thu Feb 26 00:42:28 2015, MaxMem= 1073741824 cpu:       0.3
 (Enter /apps/gaussian/g09_c01/g09/l302.exe)
 NPDir=0 NMtPBC=     1 NCelOv=     1 NCel=       1 NClECP=     1 NCelD=      1
         NCelK=      1 NCelE2=     1 NClLst=     1 CellRange=     0.0.
 One-electron integrals computed using PRISM.
 NBasis=   436 RedAO= T  NBF=   436
 NBsUse=   436 1.00D-06 NBFU=   436
 Precomputing XC quadrature grid using
 IXCGrd= 2 IRadAn=           5 IRanWt=          -1 IRanGd=           0 AccXCQ= 0.00D+00.
 NRdTot=     687 NPtTot=      184910 NUsed=      189836 NTot=      189868
 NSgBfM=   540   540   540   540   540 NAtAll=     8     8.
 Leave Link  302 at Thu Feb 26 00:42:29 2015, MaxMem= 1073741824 cpu:       4.1
 (Enter /apps/gaussian/g09_c01/g09/l303.exe)
 DipDrv:  MaxL=1.
 Leave Link  303 at Thu Feb 26 00:42:29 2015, MaxMem= 1073741824 cpu:       0.5
 (Enter /apps/gaussian/g09_c01/g09/l401.exe)
 Harris functional with IExCor=20419 diagonalized for initial guess.
 ExpMin= 2.36D-02 ExpMax= 4.58D+04 ExpMxC= 4.42D+02 IAcc=3 IRadAn=         5 AccDes= 0.00D+00
 HarFok:  IExCor=20419 AccDes= 0.00D+00 IRadAn=         5 IDoV= 1
 ScaDFX=  1.000000  1.000000  1.000000  1.000000
 FoFCou: FMM=F IPFlag=           0 FMFlag=      100000 FMFlg1=           0
         NFxFlg=           0 DoJE=T BraDBF=F KetDBF=T FulRan=T
         Omega=  0.000000  0.000000  1.000000  0.000000  0.000000 ICntrl=     500 IOpCl=  0
         NMat0=    1 NMatS0=    1 NMatT0=    0 NMatD0=    1 NMtDS0=    0 NMtDT0=    0
         I1Cent=           4 NGrid=           0.
 Petite list used in FoFCou.
 DSYEVD returned Info=         873 IAlg= 4 N=   436 NDim=   436 NE2=     2461365 trying DSYEV.
 Harris En= -92.2612271257054    
 Initial guess orbital symmetries:
       Occupied  (A) (A) (A) (A) (E) (E) (A) (E) (E)
       Virtual   (A) (A) (E) (E) (E) (E) (A) (A) (E) (E) (A) (E)
                 (E) (E) (E) (A) (A) (E) (E) (E) (E) (A) (E) (E)
                 (A) (A) (A) (E) (E) (A) (E) (E) (A) (A) (E) (E)
                 (E) (E) (A) (E) (E) (A) (E) (E) (E) (E) (A) (E)
                 (E) (A) (E) (E) (A) (A) (E) (E) (A) (E) (E) (A)
                 (E) (E) (E) (E) (A) (A) (A) (E) (E) (A) (E) (E)
                 (E) (E) (A) (A) (E) (E) (E) (E) (E) (E) (A) (E)
                 (E) (A) (E) (E) (A) (E) (E) (A) (A) (E) (E) (E)
                 (E) (A) (A) (E) (E) (E) (E) (A) (E) (E) (A) (A)
                 (E) (E) (A) (E) (E) (A) (A) (E) (E) (E) (E) (E)
                 (E) (A) (A) (E) (E) (A) (A) (A) (E) (E) (E) (E)
                 (A) (E) (E) (E) (E) (E) (E) (A) (E) (E) (A) (A)
                 (E) (E) (A) (A) (E) (E) (E) (E) (A) (E) (E) (A)
                 (A) (E) (E) (A) (E) (E) (A) (E) (E) (A) (E) (E)
                 (A) (E) (E) (A) (A) (E) (E) (E) (E) (A) (E) (E)
                 (A) (E) (E) (A) (E) (E) (E) (E) (A) (E) (E) (A)
                 (E) (E) (A) (A) (E) (E) (A) (E) (E) (A) (E) (E)
                 (A) (E) (E) (A) (A) (E) (E) (A) (E) (E) (A) (E)
                 (E) (A) (E) (E) (E) (E) (A) (E) (E) (A) (E) (E)
                 (A) (E) (E) (A) (A) (E) (E) (A) (A) (E) (E) (E)
                 (E) (A) (A) (E) (E) (E) (E) (A) (E) (E) (A) (E)
                 (E) (E) (E) (A) (E) (E) (A) (E) (E) (A) (E) (E)
                 (A) (E) (E) (A) (E) (E) (A) (A) (E) (E) (E) (E)
                 (A) (E) (E) (A) (A) (E) (E) (A) (E) (E) (A) (E)
                 (E) (A) (A) (E) (E) (A) (E) (E) (A) (E) (E) (A)
                 (E) (E) (E) (E) (E) (E) (A) (A) (A) (A) (E) (E)
                 (E) (E) (A) (E) (E) (E) (E) (A) (A) (A) (E) (E)
                 (E) (E) (A) (E) (E) (A) (E) (E) (A) (E) (E) (E)
                 (E) (A) (A) (E) (E) (E) (E) (E) (E) (A) (E) (E)
                 (A) (E) (E) (A) (A) (A) (A) (A) (E) (E) (E) (E)
                 (A) (E) (E) (E) (E) (E) (E) (E) (E) (A) (A) (A)
                 (E) (E) (E) (E) (E) (E) (A) (A) (E) (E) (A) (E)
                 (E) (A) (A) (E) (E) (E) (E) (E) (E) (E) (E) (A)
                 (A) (A) (E) (E) (A) (E) (E) (A) (E) (E) (A) (E)
                 (E) (A) (A) (E) (E) (A) (E) (E) (A) (E) (E) (E)
                 (E) (A) (E) (E) (A) (A) (A)
 The electronic state of the initial guess is 1-A.
 Leave Link  401 at Thu Feb 26 00:42:31 2015, MaxMem= 1073741824 cpu:      15.9
 (Enter /apps/gaussian/g09_c01/g09/l502.exe)
 Closed shell SCF:
 Requested convergence on RMS density matrix=1.00D-08 within 128 cycles.
 Requested convergence on MAX density matrix=1.00D-06.
 Requested convergence on             energy=1.00D-06.
 No special actions if energy rises.
 Using DIIS extrapolation, IDIIS=  1040.
 Integral symmetry usage will be decided dynamically.
       189751 words used for storage of precomputed grid.
 IEnd=     1091081 IEndB=     1091081 NGot=  1073741824 MDV=  1072959524
 LenX=  1072959524 LenY=  1072667384
 Fock matrices will be formed incrementally for  20 cycles.

 Cycle   1  Pass 1  IDiag  1:
 FoFJK:  IHMeth= 1 ICntrl=     0 DoSepK=T KAlg= 1 I1Cent= 0 FoldK=F
 FoFCou: FMM=F IPFlag=           0 FMFlag=      100000 FMFlg1=           0
         NFxFlg=           0 DoJE=T BraDBF=F KetDBF=F FulRan=T
         Omega=  0.000000  0.000000  1.000000  0.000000  0.000000 ICntrl=     500 IOpCl=  0
         NMat0=    1 NMatS0=    1 NMatT0=    0 NMatD0=    1 NMtDS0=    0 NMtDT0=    0
         I1Cent=           0 NGrid=           0.
 Petite list used in FoFCou.
 E= -96.1648241284141    
 DIIS: error= 3.67D-02 at cycle   1 NSaved=   1.
 NSaved= 1 IEnMin= 1 EnMin= -96.1648241284141     IErMin= 1 ErrMin= 3.67D-02
 ErrMax= 3.67D-02 EMaxC= 1.00D-01 BMatC= 1.78D-01 BMatP= 1.78D-01
 IDIUse=3 WtCom= 6.33D-01 WtEn= 3.67D-01
 Coeff-Com:  0.100D+01
 Coeff-En:   0.100D+01
 Coeff:      0.100D+01
 Gap=     0.557 Goal=   None    Shift=    0.000
 DSYEVD returned Info=         873 IAlg= 4 N=   436 NDim=   436 NE2=     2460245 trying DSYEV.
 GapD=    0.557 DampG=2.000 DampE=0.500 DampFc=1.0000 IDamp=-1.
 RMSDP=6.22D-04 MaxDP=5.62D-02              OVMax= 1.13D-01

 Cycle   2  Pass 1  IDiag  1:
 RMSU=  4.21D-04    CP:  9.40D-01
 FoFJK:  IHMeth= 1 ICntrl=     0 DoSepK=T KAlg= 1 I1Cent= 0 FoldK=F
 E= -96.1844998251357     Delta-E=       -0.019675696722 Rises=F Damp=F
 DIIS: error= 1.58D-02 at cycle   2 NSaved=   2.
 NSaved= 2 IEnMin= 2 EnMin= -96.1844998251357     IErMin= 2 ErrMin= 1.58D-02
 ErrMax= 1.58D-02 EMaxC= 1.00D-01 BMatC= 3.15D-02 BMatP= 1.78D-01
 IDIUse=3 WtCom= 8.42D-01 WtEn= 1.58D-01
 Coeff-Com:  0.239D+00 0.761D+00
 Coeff-En:   0.270D+00 0.730D+00
 Coeff:      0.244D+00 0.756D+00
 Gap=     0.527 Goal=   None    Shift=    0.000
 DSYEVD returned Info=         873 IAlg= 4 N=   436 NDim=   436 NE2=     2460245 trying DSYEV.
 RMSDP=2.32D-04 MaxDP=1.94D-02 DE=-1.97D-02 OVMax= 6.51D-02

 Cycle   3  Pass 1  IDiag  1:
 RMSU=  1.57D-04    CP:  9.31D-01  8.92D-01
 FoFJK:  IHMeth= 1 ICntrl=     0 DoSepK=T KAlg= 1 I1Cent= 0 FoldK=F
 E= -96.1991901383481     Delta-E=       -0.014690313212 Rises=F Damp=F
 DIIS: error= 9.70D-03 at cycle   3 NSaved=   3.
 NSaved= 3 IEnMin= 3 EnMin= -96.1991901383481     IErMin= 3 ErrMin= 9.70D-03
 ErrMax= 9.70D-03 EMaxC= 1.00D-01 BMatC= 1.03D-02 BMatP= 3.15D-02
 IDIUse=3 WtCom= 9.03D-01 WtEn= 9.70D-02
 Coeff-Com:  0.225D-01 0.369D+00 0.608D+00
 Coeff-En:   0.000D+00 0.245D+00 0.755D+00
 Coeff:      0.203D-01 0.357D+00 0.623D+00
 Gap=     0.515 Goal=   None    Shift=    0.000
 DSYEVD returned Info=       96139 IAlg= 4 N=   436 NDim=   436 NE2=     2460245 trying DSYEV.
 RMSDP=9.21D-05 MaxDP=7.95D-03 DE=-1.47D-02 OVMax= 2.51D-02

 Cycle   4  Pass 1  IDiag  1:
 RMSU=  2.16D-05    CP:  9.37D-01  9.35D-01  6.32D-01
 FoFJK:  IHMeth= 1 ICntrl=     0 DoSepK=T KAlg= 1 I1Cent= 0 FoldK=F
 E= -96.2067043005105     Delta-E=       -0.007514162162 Rises=F Damp=F
 DIIS: error= 4.35D-04 at cycle   4 NSaved=   4.
 NSaved= 4 IEnMin= 4 EnMin= -96.2067043005105     IErMin= 4 ErrMin= 4.35D-04
 ErrMax= 4.35D-04 EMaxC= 1.00D-01 BMatC= 3.12D-05 BMatP= 1.03D-02
 IDIUse=3 WtCom= 9.96D-01 WtEn= 4.35D-03
 Coeff-Com: -0.194D-03 0.532D-02 0.571D-01 0.938D+00
 Coeff-En:   0.000D+00 0.000D+00 0.000D+00 0.100D+01
 Coeff:     -0.193D-03 0.530D-02 0.569D-01 0.938D+00
 Gap=     0.513 Goal=   None    Shift=    0.000
 DSYEVD returned Info=       96139 IAlg= 4 N=   436 NDim=   436 NE2=     2460245 trying DSYEV.
 RMSDP=9.86D-06 MaxDP=6.90D-04 DE=-7.51D-03 OVMax= 1.29D-03

 Cycle   5  Pass 1  IDiag  1:
 RMSU=  4.00D-06    CP:  9.37D-01  9.35D-01  6.57D-01  1.19D+00
 FoFJK:  IHMeth= 1 ICntrl=     0 DoSepK=T KAlg= 1 I1Cent= 0 FoldK=F
 E= -96.2067266333507     Delta-E=       -0.000022332840 Rises=F Damp=F
 DIIS: error= 5.82D-05 at cycle   5 NSaved=   5.
 NSaved= 5 IEnMin= 5 EnMin= -96.2067266333507     IErMin= 5 ErrMin= 5.82D-05
 ErrMax= 5.82D-05 EMaxC= 1.00D-01 BMatC= 6.90D-07 BMatP= 3.12D-05
 IDIUse=1 WtCom= 1.00D+00 WtEn= 0.00D+00
 Coeff-Com: -0.772D-03-0.857D-02-0.187D-02 0.208D+00 0.803D+00
 Coeff:     -0.772D-03-0.857D-02-0.187D-02 0.208D+00 0.803D+00
 Gap=     0.513 Goal=   None    Shift=    0.000
 DSYEVD returned Info=       96139 IAlg= 4 N=   436 NDim=   436 NE2=     2460245 trying DSYEV.
 RMSDP=1.63D-06 MaxDP=1.42D-04 DE=-2.23D-05 OVMax= 3.23D-04

 Cycle   6  Pass 1  IDiag  1:
 RMSU=  8.36D-07    CP:  9.37D-01  9.35D-01  6.58D-01  1.22D+00  9.14D-01
 FoFJK:  IHMeth= 1 ICntrl=     0 DoSepK=T KAlg= 1 I1Cent= 0 FoldK=F
 E= -96.2067272336570     Delta-E=       -0.000000600306 Rises=F Damp=F
 DIIS: error= 2.10D-05 at cycle   6 NSaved=   6.
 NSaved= 6 IEnMin= 6 EnMin= -96.2067272336570     IErMin= 6 ErrMin= 2.10D-05
 ErrMax= 2.10D-05 EMaxC= 1.00D-01 BMatC= 8.84D-08 BMatP= 6.90D-07
 IDIUse=1 WtCom= 1.00D+00 WtEn= 0.00D+00
 Coeff-Com: -0.239D-03-0.410D-02-0.554D-02 0.146D-01 0.268D+00 0.728D+00
 Coeff:     -0.239D-03-0.410D-02-0.554D-02 0.146D-01 0.268D+00 0.728D+00
 Gap=     0.513 Goal=   None    Shift=    0.000
 DSYEVD returned Info=         873 IAlg= 4 N=   436 NDim=   436 NE2=     2460245 trying DSYEV.
 RMSDP=6.31D-07 MaxDP=5.19D-05 DE=-6.00D-07 OVMax= 9.17D-05

 Cycle   7  Pass 1  IDiag  1:
 RMSU=  2.03D-07    CP:  9.37D-01  9.35D-01  6.58D-01  1.24D+00  9.76D-01
                    CP:  8.45D-01
 FoFJK:  IHMeth= 1 ICntrl=     0 DoSepK=T KAlg= 1 I1Cent= 0 FoldK=F
 E= -96.2067273172525     Delta-E=       -0.000000083596 Rises=F Damp=F
 DIIS: error= 5.30D-06 at cycle   7 NSaved=   7.
 NSaved= 7 IEnMin= 7 EnMin= -96.2067273172525     IErMin= 7 ErrMin= 5.30D-06
 ErrMax= 5.30D-06 EMaxC= 1.00D-01 BMatC= 2.88D-09 BMatP= 8.84D-08
 IDIUse=1 WtCom= 1.00D+00 WtEn= 0.00D+00
 Coeff-Com:  0.145D-04 0.934D-05-0.610D-03-0.970D-02-0.157D-01 0.130D+00
 Coeff-Com:  0.896D+00
 Coeff:      0.145D-04 0.934D-05-0.610D-03-0.970D-02-0.157D-01 0.130D+00
 Coeff:      0.896D+00
 Gap=     0.513 Goal=   None    Shift=    0.000
 DSYEVD returned Info=         873 IAlg= 4 N=   436 NDim=   436 NE2=     2460245 trying DSYEV.
 RMSDP=1.18D-07 MaxDP=1.19D-05 DE=-8.36D-08 OVMax= 1.94D-05

 Cycle   8  Pass 1  IDiag  1:
 RMSU=  3.98D-08    CP:  9.37D-01  9.35D-01  6.58D-01  1.24D+00  9.81D-01
                    CP:  8.97D-01  1.01D+00
 FoFJK:  IHMeth= 1 ICntrl=     0 DoSepK=T KAlg= 1 I1Cent= 0 FoldK=F
 E= -96.2067273204316     Delta-E=       -0.000000003179 Rises=F Damp=F
 DIIS: error= 6.67D-07 at cycle   8 NSaved=   8.
 NSaved= 8 IEnMin= 8 EnMin= -96.2067273204316     IErMin= 8 ErrMin= 6.67D-07
 ErrMax= 6.67D-07 EMaxC= 1.00D-01 BMatC= 3.04D-11 BMatP= 2.88D-09
 IDIUse=1 WtCom= 1.00D+00 WtEn= 0.00D+00
 Coeff-Com:  0.496D-05 0.890D-04 0.103D-03-0.728D-03-0.865D-02-0.190D-01
 Coeff-Com:  0.225D-01 0.101D+01
 Coeff:      0.496D-05 0.890D-04 0.103D-03-0.728D-03-0.865D-02-0.190D-01
 Coeff:      0.225D-01 0.101D+01
 Gap=     0.513 Goal=   None    Shift=    0.000
 DSYEVD returned Info=       96139 IAlg= 4 N=   436 NDim=   436 NE2=     2460245 trying DSYEV.
 RMSDP=1.57D-08 MaxDP=1.01D-06 DE=-3.18D-09 OVMax= 3.78D-06

 Cycle   9  Pass 1  IDiag  1:
 RMSU=  4.68D-09    CP:  9.37D-01  9.35D-01  6.58D-01  1.24D+00  9.82D-01
                    CP:  9.01D-01  1.04D+00  1.14D+00
 FoFJK:  IHMeth= 1 ICntrl=     0 DoSepK=T KAlg= 1 I1Cent= 0 FoldK=F
 E= -96.2067273204785     Delta-E=       -0.000000000047 Rises=F Damp=F
 DIIS: error= 7.02D-08 at cycle   9 NSaved=   9.
 NSaved= 9 IEnMin= 9 EnMin= -96.2067273204785     IErMin= 9 ErrMin= 7.02D-08
 ErrMax= 7.02D-08 EMaxC= 1.00D-01 BMatC= 7.86D-13 BMatP= 3.04D-11
 IDIUse=1 WtCom= 1.00D+00 WtEn= 0.00D+00
 Coeff-Com: -0.384D-06 0.275D-07 0.243D-04 0.303D-03 0.329D-03-0.442D-02
 Coeff-Com: -0.226D-01 0.441D-01 0.982D+00
 Coeff:     -0.384D-06 0.275D-07 0.243D-04 0.303D-03 0.329D-03-0.442D-02
 Coeff:     -0.226D-01 0.441D-01 0.982D+00
 Gap=     0.513 Goal=   None    Shift=    0.000
 RMSDP=2.56D-09 MaxDP=1.59D-07 DE=-4.69D-11 OVMax= 3.14D-07

 SCF Done:  E(RCAM-B3LYP) =  -96.2067273205     A.U. after    9 cycles
             Convg  =    0.2557D-08             -V/T =  2.0056
 KE= 9.566709621267D+01 PE=-3.133372800329D+02 EE= 7.387884644040D+01
 Leave Link  502 at Thu Feb 26 00:45:49 2015, MaxMem= 1073741824 cpu:    1580.4
 (Enter /apps/gaussian/g09_c01/g09/l801.exe)
 Range of M.O.s used for correlation:     1   436
 NBasis=   436 NAE=     9 NBE=     9 NFC=     0 NFV=     0
 NROrb=    436 NOA=     9 NOB=     9 NVA=   427 NVB=   427

 **** Warning!!: The largest alpha MO coefficient is  0.14570758D+03

 Leave Link  801 at Thu Feb 26 00:45:49 2015, MaxMem= 1073741824 cpu:       0.1
 (Enter /apps/gaussian/g09_c01/g09/l1002.exe)
 Minotr:  Closed shell wavefunction.
          Direct CPHF calculation.
          Differentiating once with respect to electric field.
                with respect to dipole field.
          Electric field/nuclear overlap derivatives assumed to be zero.
          Using symmetry in CPHF.
          Requested convergence is 1.0D-08 RMS, and 1.0D-07 maximum.
          Secondary convergence is 1.0D-12 RMS, and 1.0D-12 maximum.
          NewPWx=F KeepS1=T KeepF1=T KeepIn=T MapXYZ=F SortEE=F KeepMc=T.
          MDV=    1073741756 using IRadAn=       1.
 Generate precomputed XC quadrature information.
          Solving linear equations simultaneously, MaxMat=       0.
          There are     3 degrees of freedom in the 1st order CPHF.  IDoFFX=0.
      3 vectors produced by pass  0 Test12= 1.28D-13 3.33D-08 XBig12= 7.49D+00 1.03D+00.
 AX will form     3 AO Fock derivatives at one time.
 FoFJK:  IHMeth= 1 ICntrl=     0 DoSepK=T KAlg= 1 I1Cent= 0 FoldK=F
 FoFCou: FMM=F IPFlag=           0 FMFlag=      100000 FMFlg1=           0
         NFxFlg=           0 DoJE=T BraDBF=F KetDBF=F FulRan=T
         Omega=  0.000000  0.000000  1.000000  0.000000  0.000000 ICntrl=     500 IOpCl=  0
         NMat0=    3 NMatS0=    3 NMatT0=    0 NMatD0=    3 NMtDS0=    0 NMtDT0=    0
         I1Cent=           0 NGrid=           0.
 Symmetry not used in FoFCou.
      3 vectors produced by pass  1 Test12= 1.28D-13 3.33D-08 XBig12= 3.50D-01 2.39D-01.
 FoFJK:  IHMeth= 1 ICntrl=     0 DoSepK=T KAlg= 1 I1Cent= 0 FoldK=F
      3 vectors produced by pass  2 Test12= 1.28D-13 3.33D-08 XBig12= 6.38D-02 6.10D-02.
 FoFJK:  IHMeth= 1 ICntrl=     0 DoSepK=T KAlg= 1 I1Cent= 0 FoldK=F
      3 vectors produced by pass  3 Test12= 1.28D-13 3.33D-08 XBig12= 3.16D-03 1.35D-02.
 FoFJK:  IHMeth= 1 ICntrl=     0 DoSepK=T KAlg= 1 I1Cent= 0 FoldK=F
      3 vectors produced by pass  4 Test12= 1.28D-13 3.33D-08 XBig12= 7.31D-04 5.00D-03.
 FoFJK:  IHMeth= 1 ICntrl=     0 DoSepK=T KAlg= 1 I1Cent= 0 FoldK=F
      3 vectors produced by pass  5 Test12= 1.28D-13 3.33D-08 XBig12= 2.04D-05 1.07D-03.
 FoFJK:  IHMeth= 1 ICntrl=     0 DoSepK=T KAlg= 1 I1Cent= 0 FoldK=F
      3 vectors produced by pass  6 Test12= 1.28D-13 3.33D-08 XBig12= 4.70D-07 1.43D-04.
 FoFJK:  IHMeth= 1 ICntrl=     0 DoSepK=T KAlg= 1 I1Cent= 0 FoldK=F
      3 vectors produced by pass  7 Test12= 1.28D-13 3.33D-08 XBig12= 1.45D-08 3.20D-05.
 FoFJK:  IHMeth= 1 ICntrl=     0 DoSepK=T KAlg= 1 I1Cent= 0 FoldK=F
      3 vectors produced by pass  8 Test12= 1.28D-13 3.33D-08 XBig12= 1.18D-10 2.21D-06.
 FoFJK:  IHMeth= 1 ICntrl=     0 DoSepK=T KAlg= 1 I1Cent= 0 FoldK=F
      1 vectors produced by pass  9 Test12= 1.28D-13 3.33D-08 XBig12= 8.36D-13 2.49D-07.
 FoFJK:  IHMeth= 1 ICntrl=     0 DoSepK=T KAlg= 1 I1Cent= 0 FoldK=F
 Inverted reduced A of dimension    28 with in-core refinement.
 End of Minotr Frequency-dependent properties file   721 does not exist.
 End of Minotr Frequency-dependent properties file   722 does not exist.
 Leave Link 1002 at Thu Feb 26 00:58:49 2015, MaxMem= 1073741824 cpu:    6221.6
 (Enter /apps/gaussian/g09_c01/g09/l1101.exe)
 Using compressed storage, NAtomX=     8.
 Will process   9 centers per pass.
 Leave Link 1101 at Thu Feb 26 00:58:49 2015, MaxMem= 1073741824 cpu:       4.3
 (Enter /apps/gaussian/g09_c01/g09/l1102.exe)
 Symmetrizing basis deriv contribution to polar:
 IMax=3 JMax=2 DiffMx= 0.00D+00
 Leave Link 1102 at Thu Feb 26 00:58:49 2015, MaxMem= 1073741824 cpu:       0.5
 (Enter /apps/gaussian/g09_c01/g09/l1110.exe)
 Forming Gx(P) for the SCF density, NAtomX=     8.
 Integral derivatives from FoFDir/FoFCou, PRISM(SPDF).
 Do as many integral derivatives as possible in FoFDir.
 G2DrvN: MDV=    1073741656.
 G2DrvN: will do     9 centers at a time, making    1 passes doing MaxLOS=4.
 Calling FoFCou, ICntrl=  3107 FMM=F I1Cent=   0 AccDes= 0.00D+00.
 FoFJK:  IHMeth= 1 ICntrl=  3107 DoSepK=T KAlg= 1 I1Cent= 0 FoldK=F
 FoFCou: FMM=F IPFlag=           0 FMFlag=      100000 FMFlg1=           0
         NFxFlg=           0 DoJE=F BraDBF=F KetDBF=F FulRan=T
         Omega=  0.000000  0.000000  1.000000  0.000000  0.000000 ICntrl=    3507 IOpCl=  0
         NMat0=    1 NMatS0=    1 NMatT0=    0 NMatD0=    4 NMtDS0=    3 NMtDT0=    0
         I1Cent=           0 NGrid=           0.
 Petite list used in FoFCou.
 FoFDir/FoFCou used for L=0 through L=4.
 End of G2Drv Frequency-dependent properties file   721 does not exist.
 End of G2Drv Frequency-dependent properties file   722 does not exist.
 Leave Link 1110 at Thu Feb 26 01:05:14 2015, MaxMem= 1073741824 cpu:    3068.0
 (Enter /apps/gaussian/g09_c01/g09/l1002.exe)
 Minotr:  Closed shell wavefunction.
          IDoAtm=11111111
          Direct CPHF calculation.
          Differentiating once with respect to electric field.
                with respect to dipole field.
          Differentiating once with respect to nuclear coordinates.
          Using symmetry in CPHF.
          Requested convergence is 1.0D-08 RMS, and 1.0D-07 maximum.
          Secondary convergence is 1.0D-12 RMS, and 1.0D-12 maximum.
          NewPWx=T KeepS1=F KeepF1=F KeepIn=T MapXYZ=F SortEE=F KeepMc=T.
          MDV=    1073741740 using IRadAn=       1.
 Generate precomputed XC quadrature information.
          Solving linear equations simultaneously, MaxMat=       0.
 FoFJK:  IHMeth= 1 ICntrl=     0 DoSepK=T KAlg= 1 I1Cent= 0 FoldK=F
 FoFCou: FMM=F IPFlag=           0 FMFlag=      100000 FMFlg1=           0
         NFxFlg=           0 DoJE=F BraDBF=F KetDBF=F FulRan=T
         Omega=  0.000000  0.000000  1.000000  0.000000  0.000000 ICntrl=     500 IOpCl=  0
         NMat0=   15 NMatS0=   15 NMatT0=    0 NMatD0=   15 NMtDS0=    0 NMtDT0=    0
         I1Cent=           0 NGrid=           0.
 Integrals replicated using symmetry in FoFCou.
          There are    15 degrees of freedom in the 1st order CPHF.  IDoFFX=4.
 Will reuse    3 saved solutions.
     12 vectors produced by pass  0 Test12= 2.56D-14 6.67D-09 XBig12= 5.01D-02 6.36D-02.
 AX will form    12 AO Fock derivatives at one time.
 FoFJK:  IHMeth= 1 ICntrl=     0 DoSepK=T KAlg= 1 I1Cent= 0 FoldK=F
     12 vectors produced by pass  1 Test12= 2.56D-14 6.67D-09 XBig12= 5.35D-03 1.58D-02.
 FoFJK:  IHMeth= 1 ICntrl=     0 DoSepK=T KAlg= 1 I1Cent= 0 FoldK=F
     12 vectors produced by pass  2 Test12= 2.56D-14 6.67D-09 XBig12= 5.67D-05 2.01D-03.
 FoFJK:  IHMeth= 1 ICntrl=     0 DoSepK=T KAlg= 1 I1Cent= 0 FoldK=F
     12 vectors produced by pass  3 Test12= 2.56D-14 6.67D-09 XBig12= 5.53D-07 1.47D-04.
 FoFJK:  IHMeth= 1 ICntrl=     0 DoSepK=T KAlg= 1 I1Cent= 0 FoldK=F
     12 vectors produced by pass  4 Test12= 2.56D-14 6.67D-09 XBig12= 3.11D-09 1.32D-05.
 FoFJK:  IHMeth= 1 ICntrl=     0 DoSepK=T KAlg= 1 I1Cent= 0 FoldK=F
     12 vectors produced by pass  5 Test12= 2.56D-14 6.67D-09 XBig12= 1.31D-11 1.07D-06.
 FoFJK:  IHMeth= 1 ICntrl=     0 DoSepK=T KAlg= 1 I1Cent= 0 FoldK=F
      8 vectors produced by pass  6 Test12= 2.56D-14 6.67D-09 XBig12= 6.66D-14 6.91D-08.
 FoFJK:  IHMeth= 1 ICntrl=     0 DoSepK=T KAlg= 1 I1Cent= 0 FoldK=F
 Inverted reduced A of dimension    80 with in-core refinement.
 FullF1:  Do perturbations    1 to    15.
 FoFJK:  IHMeth= 1 ICntrl=     0 DoSepK=T KAlg= 1 I1Cent= 0 FoldK=F
 Isotropic polarizability for W=    0.000000       20.43 Bohr**3.
 FoFJK:  IHMeth= 1 ICntrl=     0 DoSepK=T KAlg= 1 I1Cent= 0 FoldK=F
 FullF1:  Do perturbations    1 to     6.
 FoFJK:  IHMeth= 1 ICntrl=     0 DoSepK=T KAlg= 1 I1Cent= 0 FoldK=F
 End of Minotr Frequency-dependent properties file   721 does not exist.
 End of Minotr Frequency-dependent properties file   722 does not exist.
 Leave Link 1002 at Thu Feb 26 01:40:44 2015, MaxMem= 1073741824 cpu:   16994.9
 (Enter /apps/gaussian/g09_c01/g09/l601.exe)
 Copying SCF densities to generalized density rwf, IOpCl= 0 IROHF=0.

 **********************************************************************

            Population analysis using the SCF density.

 **********************************************************************

 Orbital symmetries:
       Occupied  (A) (A) (A) (A) (E) (E) (A) (E) (E)
       Virtual   (A) (A) (E) (E) (E) (E) (A) (E) (E) (A) (A) (E)
                 (E) (A) (E) (E) (E) (E) (A) (E) (E) (A) (A) (A)
                 (E) (E) (A) (E) (E) (E) (E) (A) (E) (E) (A) (A)
                 (E) (E) (A) (E) (E) (A) (E) (E) (E) (E) (A) (E)
                 (E) (A) (E) (E) (A) (A) (A) (E) (E) (E) (E) (E)
                 (E) (A) (E) (E) (A) (A) (E) (E) (A) (A) (E) (E)
                 (A) (E) (E) (E) (E) (A) (E) (E) (E) (E) (A) (E)
                 (E) (A) (E) (E) (A) (E) (E) (A) (A) (E) (E) (E)
                 (E) (A) (A) (E) (E) (E) (E) (A) (E) (E) (A) (A)
                 (E) (E) (A) (E) (E) (A) (A) (E) (E) (E) (E) (E)
                 (E) (A) (A) (E) (E) (A) (A) (A) (E) (E) (E) (E)
                 (A) (E) (E) (E) (E) (E) (E) (E) (E) (A) (A) (A)
                 (E) (E) (A) (A) (E) (E) (E) (E) (A) (E) (E) (E)
                 (E) (A) (A) (A) (E) (E) (A) (E) (E) (E) (E) (A)
                 (A) (E) (E) (A) (E) (E) (A) (E) (E) (A) (E) (E)
                 (A) (E) (E) (A) (E) (E) (A) (E) (E) (E) (E) (A)
                 (E) (E) (A) (A) (E) (E) (A) (E) (E) (A) (E) (E)
                 (A) (E) (E) (A) (A) (E) (E) (E) (E) (A) (A) (E)
                 (E) (A) (E) (E) (E) (E) (A) (E) (E) (A) (E) (E)
                 (E) (E) (A) (A) (A) (E) (E) (A) (A) (E) (E) (E)
                 (E) (A) (A) (E) (E) (E) (E) (A) (E) (E) (A) (E)
                 (E) (E) (E) (A) (A) (E) (E) (E) (E) (A) (E) (E)
                 (A) (E) (E) (E) (E) (A) (A) (A) (E) (E) (E) (E)
                 (A) (E) (E) (A) (A) (E) (E) (A) (E) (E) (A) (E)
                 (E) (A) (A) (E) (E) (A) (A) (E) (E) (E) (E) (A)
                 (E) (E) (E) (E) (E) (E) (A) (A) (A) (E) (E) (A)
                 (E) (E) (A) (E) (E) (A) (E) (E) (A) (A) (E) (E)
                 (E) (E) (A) (E) (E) (E) (E) (A) (A) (E) (E) (E)
                 (E) (A) (A) (E) (E) (E) (E) (E) (E) (A) (E) (E)
                 (A) (A) (A) (E) (E) (A) (A) (A) (E) (E) (E) (E)
                 (A) (E) (E) (E) (E) (E) (E) (E) (E) (A) (A) (A)
                 (E) (E) (E) (E) (E) (E) (A) (A) (E) (E) (A) (E)
                 (E) (A) (A) (E) (E) (E) (E) (E) (E) (E) (E) (A)
                 (A) (A) (A) (E) (E) (E) (E) (A) (A) (E) (E) (E)
                 (E) (A) (A) (E) (E) (A) (E) (E) (A) (E) (E) (E)
                 (E) (A) (E) (E) (A) (A) (A)
 The electronic state is 1-A.
 Alpha  occ. eigenvalues --  -14.73489 -10.50904  -1.30208  -1.01401  -0.87494
 Alpha  occ. eigenvalues --   -0.87494  -0.77401  -0.69392  -0.69392
 Alpha virt. eigenvalues --   -0.18098  -0.12140  -0.12031  -0.12031  -0.08191
 Alpha virt. eigenvalues --   -0.08191  -0.07694  -0.05730  -0.05730  -0.04635
 Alpha virt. eigenvalues --   -0.03786  -0.03265  -0.03265  -0.01549  -0.01323
 Alpha virt. eigenvalues --   -0.01323   0.00387   0.00387   0.01338   0.03896
 Alpha virt. eigenvalues --    0.03896   0.06255   0.07704   0.07996   0.08064
 Alpha virt. eigenvalues --    0.08064   0.11328   0.11455   0.11455   0.13247
 Alpha virt. eigenvalues --    0.13247   0.13933   0.14951   0.14951   0.15346
 Alpha virt. eigenvalues --    0.15867   0.16061   0.16061   0.16809   0.18147
 Alpha virt. eigenvalues --    0.18147   0.21028   0.22503   0.22503   0.23902
 Alpha virt. eigenvalues --    0.23902   0.25669   0.28157   0.28157   0.33061
 Alpha virt. eigenvalues --    0.35494   0.35494   0.36020   0.38785   0.39427
 Alpha virt. eigenvalues --    0.40278   0.40278   0.43648   0.43648   0.46079
 Alpha virt. eigenvalues --    0.46079   0.46987   0.48274   0.48274   0.48771
 Alpha virt. eigenvalues --    0.49270   0.50263   0.50263   0.50687   0.52725
 Alpha virt. eigenvalues --    0.54386   0.54386   0.57101   0.57898   0.57898
 Alpha virt. eigenvalues --    0.61621   0.61621   0.62486   0.64468   0.64468
 Alpha virt. eigenvalues --    0.66132   0.66132   0.67902   0.68643   0.68643
 Alpha virt. eigenvalues --    0.70461   0.73328   0.73328   0.74353   0.75575
 Alpha virt. eigenvalues --    0.75575   0.77262   0.80348   0.84410   0.84410
 Alpha virt. eigenvalues --    0.87881   0.87881   0.89458   0.89743   0.90490
 Alpha virt. eigenvalues --    0.90490   0.91357   0.91357   0.94554   1.03041
 Alpha virt. eigenvalues --    1.03041   1.04465   1.05204   1.06433   1.06433
 Alpha virt. eigenvalues --    1.06767   1.15554   1.15554   1.15570   1.17718
 Alpha virt. eigenvalues --    1.19587   1.19587   1.20471   1.20471   1.22591
 Alpha virt. eigenvalues --    1.22591   1.23245   1.26749   1.30067   1.30067
 Alpha virt. eigenvalues --    1.32656   1.35802   1.39165   1.40297   1.40297
 Alpha virt. eigenvalues --    1.42138   1.42138   1.48602   1.49440   1.49440
 Alpha virt. eigenvalues --    1.53455   1.53455   1.59830   1.59830   1.60557
 Alpha virt. eigenvalues --    1.60557   1.60620   1.64375   1.67771   1.68544
 Alpha virt. eigenvalues --    1.68544   1.69765   1.70397   1.72689   1.72689
 Alpha virt. eigenvalues --    1.75946   1.75946   1.77944   1.79069   1.79069
 Alpha virt. eigenvalues --    1.81629   1.81629   1.82112   1.82547   1.85969
 Alpha virt. eigenvalues --    1.86480   1.86480   1.88819   1.89741   1.89741
 Alpha virt. eigenvalues --    1.91271   1.91271   1.92656   1.96822   1.96996
 Alpha virt. eigenvalues --    1.96996   2.00996   2.11679   2.11679   2.12772
 Alpha virt. eigenvalues --    2.13279   2.13279   2.17692   2.19323   2.19323
 Alpha virt. eigenvalues --    2.22398   2.26794   2.26794   2.32019   2.34455
 Alpha virt. eigenvalues --    2.34455   2.38944   2.38969   2.38969   2.40904
 Alpha virt. eigenvalues --    2.40904   2.43929   2.46527   2.46527   2.47704
 Alpha virt. eigenvalues --    2.51492   2.53197   2.53197   2.54128   2.58096
 Alpha virt. eigenvalues --    2.58096   2.62765   2.68882   2.68882   2.69577
 Alpha virt. eigenvalues --    2.70482   2.70482   2.74325   2.77933   2.78085
 Alpha virt. eigenvalues --    2.78085   2.84955   2.84955   2.84993   2.86917
 Alpha virt. eigenvalues --    2.89616   2.89616   2.98655   3.04519   3.04519
 Alpha virt. eigenvalues --    3.12207   3.12207   3.18019   3.18622   3.18622
 Alpha virt. eigenvalues --    3.27355   3.28149   3.28149   3.29649   3.29649
 Alpha virt. eigenvalues --    3.31776   3.37617   3.44651   3.45615   3.45615
 Alpha virt. eigenvalues --    3.56687   3.57406   3.59255   3.59255   3.61958
 Alpha virt. eigenvalues --    3.61958   3.66321   3.69531   3.72568   3.72568
 Alpha virt. eigenvalues --    3.80331   3.80331   3.83075   3.84505   3.84505
 Alpha virt. eigenvalues --    3.88968   3.91604   3.91604   4.01413   4.01413
 Alpha virt. eigenvalues --    4.04802   4.13465   4.13970   4.13970   4.23328
 Alpha virt. eigenvalues --    4.23328   4.32261   4.36025   4.36025   4.37648
 Alpha virt. eigenvalues --    4.39973   4.39973   4.52833   4.52833   4.55620
 Alpha virt. eigenvalues --    4.67796   4.68174   4.68484   4.68484   4.87632
 Alpha virt. eigenvalues --    4.87632   4.87848   5.01985   5.01985   5.15659
 Alpha virt. eigenvalues --    5.38633   5.75702   5.75702   5.76690   5.96844
 Alpha virt. eigenvalues --    5.96844   5.98300   6.24444   6.24444   6.28575
 Alpha virt. eigenvalues --    6.31415   6.36724   6.36724   6.38169   6.41277
 Alpha virt. eigenvalues --    6.42706   6.42706   6.45690   6.45690   6.54141
 Alpha virt. eigenvalues --    6.55290   6.55290   6.68062   6.68062   6.70741
 Alpha virt. eigenvalues --    6.70741   6.76498   6.81485   6.88080   6.91254
 Alpha virt. eigenvalues --    6.91254   6.94578   6.99041   6.99041   7.05028
 Alpha virt. eigenvalues --    7.10055   7.10055   7.16277   7.23527   7.23527
 Alpha virt. eigenvalues --    7.24828   7.26513   7.35676   7.35676   7.43928
 Alpha virt. eigenvalues --    7.43928   7.51847   7.60619   7.60619   7.64806
 Alpha virt. eigenvalues --    7.64806   7.66612   7.72973   7.75136   7.75136
 Alpha virt. eigenvalues --    7.86993   7.86993   7.95838   8.01878   8.04254
 Alpha virt. eigenvalues --    8.04254   8.09706   8.09706   8.15680   8.15680
 Alpha virt. eigenvalues --    8.19838   8.29734   8.29734   8.33150   8.41921
 Alpha virt. eigenvalues --    8.43191   8.43947   8.43947   8.50043   8.52500
 Alpha virt. eigenvalues --    8.58801   8.59039   8.59039   8.65693   8.65693
 Alpha virt. eigenvalues --    8.70992   8.75043   8.75043   8.82419   8.82419
 Alpha virt. eigenvalues --    8.90472   8.90472   8.92792   8.92792   8.99094
 Alpha virt. eigenvalues --    9.01967   9.06514   9.11554   9.11554   9.13591
 Alpha virt. eigenvalues --    9.13591   9.19791   9.19791   9.34852   9.39594
 Alpha virt. eigenvalues --    9.41674   9.41674   9.44180   9.52824   9.52824
 Alpha virt. eigenvalues --    9.55692   9.57740   9.78985   9.78985   9.83366
 Alpha virt. eigenvalues --    9.83366   9.90266   9.90266   9.92606   9.92606
 Alpha virt. eigenvalues --   10.07967  10.16014  10.27325  10.28261  10.30527
 Alpha virt. eigenvalues --   10.30527  10.41742  10.41742  10.43737  10.57614
 Alpha virt. eigenvalues --   10.58379  10.58379  10.84908  10.84908  10.98035
 Alpha virt. eigenvalues --   11.24998  11.40351  11.40351  11.71280  11.76526
 Alpha virt. eigenvalues --   11.76526  12.27678  12.46524  12.46524  12.64520
 Alpha virt. eigenvalues --   12.64520  13.05215  14.30007  14.30007  14.67008
 Alpha virt. eigenvalues --   27.85910  36.72261
          Condensed to atoms (all electrons):
              1          2          3          4          5          6
     1  C    5.255303   0.384830   0.384830   0.384830   0.292729  -0.013684
     2  H    0.384830   0.303618   0.008567   0.008567  -0.012168   0.001441
     3  H    0.384830   0.008567   0.303618   0.008567  -0.012168  -0.002787
     4  H    0.384830   0.008567   0.008567   0.303618  -0.012168  -0.002786
     5  N    0.292729  -0.012168  -0.012168  -0.012168   5.838840   0.368478
     6  H   -0.013684   0.001441  -0.002787  -0.002786   0.368478   0.373071
     7  H   -0.013684  -0.002787  -0.002786   0.001441   0.368478  -0.016836
     8  H   -0.013684  -0.002786   0.001441  -0.002787   0.368478  -0.016836
              7          8
     1  C   -0.013684  -0.013684
     2  H   -0.002787  -0.002786
     3  H   -0.002786   0.001441
     4  H    0.001441  -0.002787
     5  N    0.368478   0.368478
     6  H   -0.016836  -0.016836
     7  H    0.373071  -0.016836
     8  H   -0.016836   0.373071
 Mulliken atomic charges:
              1
     1  C   -0.661470
     2  H    0.310718
     3  H    0.310718
     4  H    0.310718
     5  N   -0.200501
     6  H    0.309939
     7  H    0.309939
     8  H    0.309939
 Sum of Mulliken atomic charges =   1.00000
 Mulliken charges with hydrogens summed into heavy atoms:
              1
     1  C    0.270684
     5  N    0.729316
 Sum of Mulliken charges with hydrogens summed into heavy atoms =   1.00000
 APT atomic charges:
              1
     1  C    0.244894
     2  H    0.071657
     3  H    0.071657
     4  H    0.071657
     5  N   -0.249625
     6  H    0.263253
     7  H    0.263253
     8  H    0.263253
 Sum of APT charges=   1.00000
 APT Atomic charges with hydrogens summed into heavy atoms:
              1
     1  C    0.459866
     2  H    0.000000
     3  H    0.000000
     4  H    0.000000
     5  N    0.540134
     6  H    0.000000
     7  H    0.000000
     8  H    0.000000
 Sum of APT charges=   1.00000
 Electronic spatial extent (au):  <R**2>=             94.8389
 Charge=              1.0000 electrons
 Dipole moment (field-independent basis, Debye):
    X=              0.0000    Y=              0.0000    Z=              2.1778  Tot=              2.1778
 Quadrupole moment (field-independent basis, Debye-Ang):
   XX=            -10.2181   YY=            -10.2181   ZZ=             -6.7658
   XY=              0.0000   XZ=              0.0000   YZ=              0.0000
 Traceless Quadrupole moment (field-independent basis, Debye-Ang):
   XX=             -1.1508   YY=             -1.1508   ZZ=              2.3016
   XY=              0.0000   XZ=              0.0000   YZ=              0.0000
 Octapole moment (field-independent basis, Debye-Ang**2):
  XXX=             -0.3987  YYY=             -0.1144  ZZZ=              5.7942  XYY=              0.3987
  XXY=              0.1144  XXZ=              2.6162  XZZ=              0.0000  YZZ=              0.0000
  YYZ=              2.6162  XYZ=              0.0000
 Hexadecapole moment (field-independent basis, Debye-Ang**3):
 XXXX=            -18.3246 YYYY=            -18.3246 ZZZZ=            -63.0193 XXXY=              0.0000
 XXXZ=             -2.7750 YYYX=              0.0000 YYYZ=             -0.7932 ZZZX=              0.0000
 ZZZY=              0.0000 XXYY=             -6.1082 XXZZ=            -10.9611 YYZZ=            -10.9611
 XXYZ=              0.7932 YYXZ=              2.7750 ZZXY=              0.0000
 N-N= 4.758461005939D+01 E-N=-3.133372752338D+02  KE= 9.566709621267D+01
  Exact polarizability:  19.405   0.000  19.405   0.000   0.000  22.488
 Approx polarizability:  21.983   0.000  21.983   0.000   0.000  22.999
 No NMR shielding tensors so no spin-rotation constants.
 Leave Link  601 at Thu Feb 26 01:40:45 2015, MaxMem= 1073741824 cpu:       4.2
 (Enter /apps/gaussian/g09_c01/g09/l701.exe)
 Compute integral second derivatives.
 ... and contract with generalized density number  0.
 Leave Link  701 at Thu Feb 26 01:40:45 2015, MaxMem= 1073741824 cpu:       4.6
 (Enter /apps/gaussian/g09_c01/g09/l702.exe)
 L702 exits ... SP integral derivatives will be done elsewhere.
 Leave Link  702 at Thu Feb 26 01:40:45 2015, MaxMem= 1073741824 cpu:       0.1
 (Enter /apps/gaussian/g09_c01/g09/l703.exe)
 Compute integral second derivatives, UseDBF=F ICtDFT=           0.
 Integral derivatives from FoFDir, PRISM(SPDF).
 Calling FoFJK, ICntrl=    100127 FMM=F ISym2X=1 I1Cent= 0 IOpClX= 0 NMat=1 NMatS=1 NMatT=0.
 FoFJK:  IHMeth= 1 ICntrl=100127 DoSepK=T KAlg= 1 I1Cent= 0 FoldK=F
 FoFCou: FMM=F IPFlag=           0 FMFlag=      100000 FMFlg1=         800
         NFxFlg=           0 DoJE=F BraDBF=F KetDBF=F FulRan=T
         Omega=  0.000000  0.000000  1.000000  0.000000  0.000000 ICntrl=  100527 IOpCl=  0
         NMat0=    1 NMatS0=    1 NMatT0=    0 NMatD0=    1 NMtDS0=    0 NMtDT0=    0
         I1Cent=           0 NGrid=           0.
 Petite list used in FoFCou.
 Leave Link  703 at Thu Feb 26 01:56:15 2015, MaxMem= 1073741824 cpu:    7413.8
 (Enter /apps/gaussian/g09_c01/g09/l716.exe)
 Dipole        =-4.10417469D-15 3.76929662D-19 8.56798418D-01
 Polarizability= 1.94046199D+01-1.36851919D-05 1.94046287D+01
                 7.92251801D-06 3.41926425D-05 2.24878362D+01
 HyperPolar    = 1.57933606D+00-4.49129822D-01-1.57636351D+00
                 4.48929524D-01-2.47188886D+00 1.00143155D-04
                -2.47145123D+00-6.96633520D-05-1.62393223D-05
                 4.30578417D+00
 ***** Axes restored to original set *****
 -------------------------------------------------------------------
 Center     Atomic                   Forces (Hartrees/Bohr)
 Number     Number              X              Y              Z
 -------------------------------------------------------------------
      1        6           0.000000000    0.000000000    0.003548986
      2        1           0.000348532    0.003751969    0.001256231
      3        1           0.003075034   -0.002177822    0.001256231
      4        1          -0.003423566   -0.001574147    0.001256231
      5        7           0.000000000    0.000000000    0.000772551
      6        1          -0.000461409   -0.004949988   -0.002696743
      7        1           0.004517520    0.002075402   -0.002696743
      8        1          -0.004056111    0.002874586   -0.002696743
 -------------------------------------------------------------------
 Cartesian Forces:  Max     0.004949988 RMS     0.002553477
 Force constants in Cartesian coordinates: 
                1             2             3             4             5 
      1  0.624619D+00
      2  0.000000D+00  0.624619D+00
      3  0.000000D+00  0.000000D+00  0.402634D+00
      4 -0.552850D-01 -0.231960D-01 -0.743841D-02  0.503398D-01
      5 -0.231967D-01 -0.302558D+00 -0.799720D-01  0.247943D-01  0.314647D+00
      6 -0.609329D-02 -0.655024D-01 -0.730024D-01  0.766453D-02  0.823965D-01
      7 -0.220652D+00  0.118671D+00 -0.655386D-01  0.461364D-02 -0.304601D-02
      8  0.118671D+00 -0.137192D+00  0.464279D-01  0.229079D-01 -0.124256D-01
      9 -0.536801D-01  0.380281D-01 -0.730024D-01  0.909160D-02 -0.418362D-02
     10 -0.260829D+00 -0.954739D-01  0.729771D-01  0.434619D-03  0.633251D-03
     11 -0.954746D-01 -0.970147D-01  0.335442D-01 -0.253206D-01 -0.824662D-02
     12  0.597734D-01  0.274742D-01 -0.730025D-01 -0.970708D-02 -0.243543D-02
     13 -0.982062D-01 -0.194079D-05  0.000000D+00 -0.571213D-03  0.727074D-03
     14  0.192968D-05 -0.982059D-01  0.000000D+00  0.726245D-03  0.717654D-02
     15  0.000000D+00  0.000000D+00 -0.148821D+00  0.336382D-03  0.362405D-02
     16  0.260201D-03  0.599954D-03 -0.210216D-03  0.323524D-03  0.459198D-04
     17  0.599165D-03  0.664134D-02 -0.226319D-02  0.459464D-04  0.813008D-03
     18 -0.304688D-02 -0.327278D-01 -0.116019D-01  0.197761D-03  0.212815D-02
     19  0.556532D-02  0.246371D-02  0.206502D-02  0.164410D-03  0.301189D-03
     20  0.246297D-02  0.133624D-02  0.949501D-03  0.724190D-03  0.204679D-03
     21  0.298665D-01  0.137252D-01 -0.116019D-01  0.306399D-03 -0.813984D-03
     22  0.452681D-02 -0.306256D-02 -0.185486D-02 -0.197779D-04 -0.259133D-03
     23 -0.306327D-02  0.237475D-02  0.131363D-02 -0.681844D-03  0.389654D-03
     24 -0.268197D-01  0.190025D-01 -0.116019D-01 -0.451131D-03 -0.743703D-03
                6             7             8             9            10 
      6  0.871983D-01
      7  0.274440D-02  0.227098D+00
      8  0.962429D-02 -0.126845D+00  0.137889D+00
      9  0.516890D-02  0.675252D-01 -0.478359D-01  0.871983D-01
     10 -0.922679D-03 -0.167663D-01 -0.105642D-01  0.696268D-02  0.270042D+00
     11  0.996537D-02  0.153897D-01  0.895426D-02 -0.718886D-02  0.102051D+00
     12  0.516890D-02 -0.816892D-02 -0.578175D-02  0.516890D-02 -0.751897D-01
     13 -0.341141D-02  0.461032D-02 -0.371779D-02 -0.300592D-01  0.586902D-02
     14 -0.366789D-01 -0.371866D-02  0.199506D-02  0.212938D-01  0.299114D-02
     15 -0.206382D-01  0.297032D-02 -0.210339D-02 -0.206382D-01 -0.330686D-02
     16  0.175376D-03 -0.249390D-03 -0.485282D-03 -0.674311D-03 -0.120158D-03
     17  0.188014D-02 -0.622814D-04  0.618479D-03  0.511728D-03  0.201178D-03
     18 -0.645709D-02 -0.858131D-03  0.141643D-03  0.128032D-02  0.869631D-03
     19 -0.106014D-03  0.694751D-03  0.269310D-03 -0.706518D-03  0.730416D-03
     20 -0.839835D-03 -0.153401D-03 -0.324875D-03  0.466663D-03  0.188999D-03
     21  0.128032D-02 -0.418500D-03  0.762543D-03  0.128124D-02 -0.194191D-02
     22 -0.508828D-04  0.650858D-03 -0.234932D-03  0.154056D-02  0.638614D-03
     23 -0.845194D-03 -0.234906D-03  0.485674D-03 -0.109195D-02 -0.274072D-04
     24  0.128124D-02  0.174415D-02 -0.123534D-02 -0.645709D-02  0.551732D-03
               11            12            13            14            15 
     11  0.949441D-01
     12 -0.345606D-01  0.871983D-01
     13  0.299200D-02  0.334706D-01  0.708309D+00
     14  0.736415D-03  0.153851D-01  0.000000D+00  0.708309D+00
     15 -0.152074D-02 -0.206382D-01  0.000000D+00  0.000000D+00  0.511483D+00
     16  0.623889D-03  0.757400D-03 -0.674642D-01 -0.261510D-01 -0.974056D-02
     17  0.490035D-03  0.378531D-03 -0.261505D-01 -0.345877D+00 -0.104598D+00
     18 -0.188400D-04  0.128124D-02 -0.103906D-01 -0.111584D+00 -0.100249D+00
     19  0.188973D-03 -0.171594D-02 -0.298921D+00 -0.107481D+00  0.954552D-01
     20  0.406116D-03 -0.788192D-03 -0.107481D+00 -0.114420D+00  0.438636D-01
     21 -0.892809D-03 -0.645709D-02  0.101830D+00  0.467936D-01 -0.100249D+00
     22 -0.450408D-03  0.780325D-03 -0.253626D+00  0.133631D+00 -0.857145D-01
     23 -0.269524D-03  0.328106D-03  0.133632D+00 -0.159715D+00  0.607348D-01
     24  0.672341D-03  0.128032D-02 -0.914395D-01  0.647907D-01 -0.100249D+00
               16            17            18            19            20 
     16  0.622634D-01
     17  0.285240D-01  0.365938D+00
     18  0.106508D-01  0.114385D+00  0.104298D+00
     19 -0.241082D-03 -0.566206D-03 -0.757745D-03  0.314722D+00
     20 -0.316995D-01 -0.115778D-01  0.140289D-01  0.117233D+00  0.113480D+00
     21 -0.134867D-01 -0.393533D-02  0.572449D-02 -0.104385D+00 -0.479685D-01
     22  0.522780D-02 -0.259125D-02  0.333524D-02 -0.227151D-01  0.187241D-01
     23  0.285420D-01 -0.170467D-01  0.136475D-01 -0.124092D-01  0.108962D-01
     24  0.125283D-01 -0.635822D-02  0.572449D-02  0.101514D-01 -0.971214D-02
               21            22            23            24 
     21  0.104298D+00
     22 -0.117705D-01  0.265317D+00
     23 -0.767068D-02 -0.145757D+00  0.162885D+00
     24  0.572449D-02  0.937347D-01 -0.664162D-01  0.104298D+00
 Force constants in internal coordinates: 
                1             2             3             4             5 
      1  0.343647D+00
      2  0.196213D-02  0.343647D+00
      3  0.196215D-02  0.196212D-02  0.343647D+00
      4  0.365262D-02  0.365259D-02  0.365250D-02  0.257227D+00
      5 -0.127583D-02  0.349703D-03  0.349778D-03  0.522693D-02  0.411422D+00
      6  0.349703D-03  0.349788D-03 -0.127580D-02  0.522683D-02  0.292218D-02
      7  0.349777D-03 -0.127583D-02  0.349700D-03  0.522689D-02  0.292217D-02
      8  0.374127D-02  0.374204D-02 -0.131199D-02 -0.253233D-01  0.622082D-04
      9  0.374204D-02 -0.131199D-02  0.374129D-02 -0.253232D-01  0.626600D-04
     10  0.552374D-03 -0.352114D-02 -0.352138D-02  0.266314D-01  0.226434D-02
     11 -0.131199D-02  0.374128D-02  0.374205D-02 -0.253233D-01  0.930054D-03
     12 -0.352135D-02  0.552308D-03 -0.352116D-02  0.266314D-01 -0.168661D-02
     13 -0.352116D-02 -0.352132D-02  0.552391D-03  0.266315D-01 -0.168715D-02
     14  0.536617D-03  0.159998D-03  0.159680D-03  0.131619D-01 -0.482860D-02
     15  0.159989D-03  0.159673D-03  0.536593D-03  0.131619D-01 -0.407083D-02
     16  0.159658D-03  0.536593D-03  0.160029D-03  0.131619D-01 -0.407075D-02
     17 -0.382315D-03 -0.155776D-03 -0.382132D-03 -0.141447D-01  0.683219D-02
     18 -0.382115D-03 -0.382312D-03 -0.155780D-03 -0.141447D-01  0.683406D-02
     19 -0.155772D-03 -0.382114D-03 -0.382333D-03 -0.141447D-01  0.272440D-03
     20  0.000000D+00 -0.279806D-02  0.279796D-02  0.000000D+00  0.121501D-05
     21 -0.975750D-05 -0.277767D-02  0.278776D-02  0.000000D+00  0.261549D-02
     22  0.106260D-04 -0.278785D-02  0.277754D-02  0.000000D+00 -0.261550D-02
     23  0.278775D-02 -0.975946D-05 -0.277769D-02  0.000000D+00  0.404269D-03
     24  0.277755D-02  0.106353D-04 -0.278789D-02  0.000000D+00  0.301854D-02
     25  0.279793D-02  0.000000D+00 -0.279811D-02  0.000000D+00 -0.221245D-02
     26 -0.278787D-02  0.277753D-02  0.106513D-04  0.000000D+00 -0.402070D-03
     27 -0.279808D-02  0.279792D-02  0.000000D+00  0.000000D+00  0.221220D-02
     28 -0.277769D-02  0.278774D-02 -0.976529D-05  0.000000D+00 -0.301878D-02
                6             7             8             9            10 
      6  0.411422D+00
      7  0.292216D-02  0.411422D+00
      8  0.930057D-03  0.626521D-04  0.524182D-01
      9  0.622143D-04  0.930053D-03  0.121721D-01  0.524183D-01
     10 -0.168662D-02 -0.168712D-02 -0.455719D-01 -0.455702D-01  0.132564D+00
     11  0.626580D-04  0.622060D-04  0.121721D-01  0.121721D-01  0.104141D-01
     12 -0.168712D-02  0.226433D-02 -0.455702D-01  0.104141D-01 -0.238329D-01
     13  0.226431D-02 -0.168662D-02  0.104141D-01 -0.455720D-01 -0.238328D-01
     14 -0.407078D-02 -0.407082D-02 -0.384265D-02 -0.384217D-02  0.169974D-01
     15 -0.482861D-02 -0.407076D-02  0.343981D-02 -0.384264D-02 -0.626565D-02
     16 -0.407081D-02 -0.482861D-02 -0.384218D-02  0.343981D-02 -0.626743D-02
     17  0.683408D-02  0.272438D-03  0.584520D-03  0.339313D-02 -0.455138D-02
     18  0.272442D-03  0.683220D-02  0.339314D-02  0.584332D-03 -0.455055D-02
     19  0.683219D-02  0.683407D-02  0.584337D-03  0.584520D-03  0.430427D-02
     20 -0.221245D-02  0.221220D-02 -0.590491D-02  0.590411D-02  0.000000D+00
     21  0.404249D-03 -0.301878D-02 -0.543558D-02  0.496537D-02  0.155039D-02
     22  0.301853D-02 -0.402074D-03 -0.496617D-02  0.543470D-02 -0.154842D-02
     23 -0.301877D-02  0.261549D-02  0.496537D-02  0.469460D-03  0.732674D-02
     24 -0.402073D-03 -0.261549D-02  0.543470D-02 -0.469280D-03  0.887622D-02
     25  0.221221D-02  0.121325D-05  0.590411D-02  0.000000D+00  0.577741D-02
     26 -0.261549D-02  0.301853D-02 -0.469283D-03 -0.496617D-02 -0.732700D-02
     27  0.121115D-05 -0.221245D-02  0.000000D+00 -0.590491D-02 -0.577751D-02
     28  0.261550D-02  0.404256D-03  0.469455D-03 -0.543558D-02 -0.887633D-02
               11            12            13            14            15 
     11  0.524183D-01
     12 -0.455719D-01  0.132564D+00
     13 -0.455702D-01 -0.238329D-01  0.132564D+00
     14  0.343981D-02 -0.626563D-02 -0.626745D-02  0.981510D-01
     15 -0.384217D-02 -0.626745D-02  0.169974D-01 -0.177814D-01  0.981511D-01
     16 -0.384265D-02  0.169974D-01 -0.626567D-02 -0.177814D-01 -0.177814D-01
     17  0.584331D-03  0.430427D-02 -0.455054D-02 -0.401732D-01 -0.401730D-01
     18  0.584526D-03 -0.455140D-02  0.430428D-02 -0.401730D-01  0.130844D-01
     19  0.339314D-02 -0.455056D-02 -0.455137D-02  0.130844D-01 -0.401732D-01
     20  0.000000D+00 -0.577751D-02  0.577739D-02  0.000000D+00 -0.233433D-02
     21  0.469461D-03 -0.887633D-02  0.732673D-02  0.384104D-02  0.150700D-02
     22 -0.469281D-03 -0.732701D-02  0.887622D-02 -0.384139D-02  0.534811D-02
     23 -0.543559D-02  0.155039D-02 -0.887633D-02  0.150701D-02 -0.534800D-02
     24 -0.496618D-02 -0.154844D-02 -0.732699D-02  0.534810D-02 -0.150667D-02
     25 -0.590492D-02  0.000000D+00 -0.577749D-02 -0.233433D-02  0.233444D-02
     26  0.543470D-02  0.887623D-02 -0.154844D-02 -0.150665D-02 -0.384139D-02
     27  0.590411D-02  0.577741D-02  0.000000D+00  0.233444D-02  0.000000D+00
     28  0.496537D-02  0.732673D-02  0.155039D-02 -0.534799D-02  0.384104D-02
               16            17            18            19            20 
     16  0.981510D-01
     17  0.130844D-01  0.535871D-01
     18 -0.401732D-01  0.934862D-02  0.535871D-01
     19 -0.401730D-01  0.934862D-02  0.934862D-02  0.535871D-01
     20  0.233443D-02 -0.719861D-02  0.719861D-02  0.000000D+00  0.142801D-01
     21 -0.534800D-02  0.608083D-02  0.558965D-03 -0.663984D-02  0.350148D-02
     22 -0.150666D-02 -0.558829D-03 -0.608083D-02  0.663960D-02  0.350148D-02
     23  0.384105D-02 -0.663984D-02  0.608083D-02  0.558958D-03  0.392947D-02
     24 -0.384138D-02  0.663959D-02 -0.558825D-03 -0.608083D-02 -0.684912D-02
     25  0.000000D+00  0.000000D+00 -0.719862D-02  0.719861D-02 -0.684912D-02
     26  0.534810D-02 -0.608082D-02  0.663959D-02 -0.558829D-03  0.392946D-02
     27 -0.233433D-02  0.719861D-02  0.000000D+00 -0.719861D-02 -0.684913D-02
     28  0.150701D-02  0.558953D-03 -0.663985D-02  0.608083D-02 -0.684913D-02
               21            22            23            24            25 
     21  0.149196D-01
     22  0.382126D-02  0.149196D-01
     23 -0.716890D-02 -0.748868D-02  0.149196D-01
     24  0.424924D-02 -0.716890D-02  0.382126D-02  0.149196D-01
     25 -0.684913D-02  0.392947D-02  0.350148D-02  0.350148D-02  0.142801D-01
     26 -0.748868D-02 -0.716891D-02  0.424924D-02 -0.716890D-02 -0.684913D-02
     27  0.392946D-02 -0.684913D-02 -0.684913D-02  0.392946D-02 -0.684914D-02
     28 -0.716891D-02  0.424924D-02 -0.716891D-02 -0.748869D-02  0.392946D-02
               26            27            28 
     26  0.149196D-01
     27  0.350149D-02  0.142801D-01
     28  0.382126D-02  0.350148D-02  0.149196D-01
 Leave Link  716 at Thu Feb 26 01:56:15 2015, MaxMem= 1073741824 cpu:       0.2
 (Enter /apps/gaussian/g09_c01/g09/l103.exe)

 GradGradGradGradGradGradGradGradGradGradGradGradGradGradGradGradGradGrad
 Berny optimization.
 Red2BG is reusing G-inverse.
 Internal  Forces:  Max     0.007317679 RMS     0.002658429
 Search for a local minimum.
 Step number   1 out of a maximum of   38
 All quantities printed in internal units (Hartrees-Bohrs-Radians)
 RMS Force = .26584D-02 SwitMx=.10000D-02 MixMth= 1
 Mixed Optimization -- RFO/linear search
 Second derivative matrix not updated -- analytic derivatives used.
 ITU=  0
     Eigenvalues ---    0.00175   0.04741   0.04741   0.04908   0.04908
     Eigenvalues ---    0.12059   0.13057   0.13057   0.13494   0.19428
     Eigenvalues ---    0.19428   0.29604   0.34206   0.34206   0.34819
     Eigenvalues ---    0.40891   0.40891   0.41884
 RFO step:  Lambda=-5.75637491D-04 EMin= 1.74545181D-03
 Linear search not attempted -- first point.
 Iteration  1 RMS(Cart)=  0.01050952 RMS(Int)=  0.00001899
 Iteration  2 RMS(Cart)=  0.00001679 RMS(Int)=  0.00000522
 Iteration  3 RMS(Cart)=  0.00000000 RMS(Int)=  0.00000522
 ClnCor:  largest displacement from symmetrization is 2.20D-08 for atom     3.
 Variable       Old X    -DE/DX   Delta X   Delta X   Delta X     New X
                                 (Linear)    (Quad)   (Total)
    R1        2.05946  -0.00397   0.00000  -0.01096  -0.01096   2.04850
    R2        2.05946  -0.00397   0.00000  -0.01096  -0.01096   2.04850
    R3        2.05946  -0.00397   0.00000  -0.01096  -0.01096   2.04850
    R4        2.86675  -0.00732   0.00000  -0.02854  -0.02854   2.83820
    R5        1.94289  -0.00561   0.00000  -0.01329  -0.01329   1.92960
    R6        1.94289  -0.00561   0.00000  -0.01329  -0.01329   1.92960
    R7        1.94289  -0.00561   0.00000  -0.01329  -0.01329   1.92960
    A1        1.93261   0.00002   0.00000  -0.00402  -0.00403   1.92858
    A2        1.93261   0.00002   0.00000  -0.00402  -0.00403   1.92858
    A3        1.88811  -0.00002   0.00000   0.00423   0.00422   1.89233
    A4        1.93261   0.00002   0.00000  -0.00402  -0.00403   1.92858
    A5        1.88811  -0.00002   0.00000   0.00423   0.00422   1.89233
    A6        1.88811  -0.00002   0.00000   0.00423   0.00422   1.89233
    A7        1.94749  -0.00061   0.00000  -0.00321  -0.00322   1.94427
    A8        1.94749  -0.00061   0.00000  -0.00321  -0.00322   1.94427
    A9        1.94749  -0.00061   0.00000  -0.00321  -0.00322   1.94427
   A10        1.87238   0.00066   0.00000   0.00345   0.00345   1.87583
   A11        1.87238   0.00066   0.00000   0.00345   0.00345   1.87583
   A12        1.87238   0.00066   0.00000   0.00345   0.00345   1.87583
    D1        3.14146   0.00000   0.00000   0.00012   0.00012   3.14158
    D2       -1.04733   0.00000   0.00000   0.00012   0.00012  -1.04721
    D3        1.04707   0.00000   0.00000   0.00012   0.00012   1.04719
    D4       -1.04733   0.00000   0.00000   0.00012   0.00012  -1.04721
    D5        1.04707   0.00000   0.00000   0.00012   0.00012   1.04719
    D6        3.14146   0.00000   0.00000   0.00012   0.00012   3.14158
    D7        1.04707   0.00000   0.00000   0.00012   0.00012   1.04719
    D8        3.14146   0.00000   0.00000   0.00012   0.00012   3.14158
    D9       -1.04733   0.00000   0.00000   0.00012   0.00012  -1.04721
         Item               Value     Threshold  Converged?
 Maximum Force            0.007318     0.000002     NO 
 RMS     Force            0.002658     0.000001     NO 
 Maximum Displacement     0.020066     0.000006     NO 
 RMS     Displacement     0.010518     0.000004     NO 
 Predicted change in Energy=-2.883592D-04
 GradGradGradGradGradGradGradGradGradGradGradGradGradGradGradGradGradGrad

 Leave Link  103 at Thu Feb 26 01:56:15 2015, MaxMem= 1073741824 cpu:       0.1
 (Enter /apps/gaussian/g09_c01/g09/l202.exe)
                          Input orientation:                          
 ---------------------------------------------------------------------
 Center     Atomic      Atomic             Coordinates (Angstroms)
 Number     Number       Type             X           Y           Z
 ---------------------------------------------------------------------
      1          6           0        0.000000    0.000000   -0.793836
      2          1           0       -0.095288   -1.024040   -1.136407
      3          1           0       -0.839201    0.594542   -1.136407
      4          1           0        0.934489    0.429499   -1.136407
      5          7           0        0.000000    0.000000    0.708076
      6          1           0        0.088093    0.946623    1.080627
      7          1           0       -0.863845   -0.397021    1.080627
      8          1           0        0.775753   -0.549602    1.080627
 ---------------------------------------------------------------------
                    Distance matrix (angstroms):
                    1          2          3          4          5
     1  C    0.000000
     2  H    1.084017   0.000000
     3  H    1.084017   1.781352   0.000000
     4  H    1.084017   1.781352   1.781352   0.000000
     5  N    1.501912   2.111837   2.111837   2.111837   0.000000
     6  H    2.101777   2.971932   2.428801   2.428795   1.021102
     7  H    2.101777   2.428801   2.428795   2.971932   1.021102
     8  H    2.101777   2.428795   2.971932   2.428801   1.021102
                    6          7          8
     6  H    0.000000
     7  H    1.646683   0.000000
     8  H    1.646683   1.646683   0.000000
 Stoichiometry    CH6N(1+)
 Framework group  C3[C3(CN),X(H6)]
 Deg. of freedom     6
 Full point group                 C3      NOp   3
 RotChk:  IX=0 Diff= 0.00D+00
 Largest Abelian subgroup         C1      NOp   1
 Largest concise Abelian subgroup C1      NOp   1
                         Standard orientation:                         
 ---------------------------------------------------------------------
 Center     Atomic      Atomic             Coordinates (Angstroms)
 Number     Number       Type             X           Y           Z
 ---------------------------------------------------------------------
      1          6           0        0.000000    0.000000   -0.795214
      2          1           0        1.024040   -0.095288   -1.137785
      3          1           0       -0.594542   -0.839201   -1.137785
      4          1           0       -0.429499    0.934489   -1.137785
      5          7           0        0.000000    0.000000    0.706698
      6          1           0       -0.946622    0.088093    1.079250
      7          1           0        0.397021   -0.863845    1.079250
      8          1           0        0.549602    0.775753    1.079250
 ---------------------------------------------------------------------
 Rotational constants (GHZ):     85.2122299     20.2297241     20.2297241
 Leave Link  202 at Thu Feb 26 01:56:15 2015, MaxMem= 1073741824 cpu:       0.0
 (Enter /apps/gaussian/g09_c01/g09/l301.exe)
 Standard basis: Aug-CC-pVQZ (5D, 7F)
 Ernie: Thresh=  0.10000D-02 Tol=  0.10000D-05 Strict=F.
 Ernie:  6 primitive shells out of 172 were deleted.
 There are   436 symmetry adapted basis functions of A   symmetry.
 Integral buffers will be    131072 words long.
 Raffenetti 2 integral format.
 Two-electron integral symmetry is turned on.
   436 basis functions,   590 primitive gaussians,   540 cartesian basis functions
     9 alpha electrons        9 beta electrons
       nuclear repulsion energy        47.9588910531 Hartrees.
 IExCor=20419 DFT=T Ex+Corr=CAM-B3LYP ExCW=0 ScaHFX=  1.000000
 ScaDFX=  1.000000  1.000000  1.000000  0.810000 ScalE2=  1.000000  1.000000
 IRadAn=      5 IRanWt=     -1 IRanGd=            0 ICorTp=0
  HFx wShort=  0.000000 wLong=  0.330000 cFull=  0.190000 cShort=  0.000000 cLong=  0.460000
  DFx wShort=  0.000000 wLong=  0.330000 cFull=  0.190000 cShort=  0.000000 cLong=  0.460000
 NAtoms=    8 NActive=    8 NUniq=    4 SFac= 4.00D+00 NAtFMM=   60 NAOKFM=F Big=F
 Leave Link  301 at Thu Feb 26 01:56:15 2015, MaxMem= 1073741824 cpu:       0.3
 (Enter /apps/gaussian/g09_c01/g09/l302.exe)
 NPDir=0 NMtPBC=     1 NCelOv=     1 NCel=       1 NClECP=     1 NCelD=      1
         NCelK=      1 NCelE2=     1 NClLst=     1 CellRange=     0.0.
 One-electron integrals computed using PRISM.
 NBasis=   436 RedAO= T  NBF=   436
 NBsUse=   436 1.00D-06 NBFU=   436
 Precomputing XC quadrature grid using
 IXCGrd= 2 IRadAn=           5 IRanWt=          -1 IRanGd=           0 AccXCQ= 0.00D+00.
 NRdTot=     687 NPtTot=      184910 NUsed=      189836 NTot=      189868
 NSgBfM=   540   540   540   540   540 NAtAll=     8     8.
 Leave Link  302 at Thu Feb 26 01:56:15 2015, MaxMem= 1073741824 cpu:       4.0
 (Enter /apps/gaussian/g09_c01/g09/l303.exe)
 DipDrv:  MaxL=1.
 Leave Link  303 at Thu Feb 26 01:56:15 2015, MaxMem= 1073741824 cpu:       0.5
 (Enter /apps/gaussian/g09_c01/g09/l401.exe)
 Initial guess read from the read-write file.
 B after Tr=     0.000000    0.000000    0.000000
         Rot=    1.000000    0.000000    0.000000    0.000000 Ang=   0.00 deg.
 Guess basis will be translated and rotated to current coordinates.
 Initial guess orbital symmetries:
       Occupied  (A) (A) (A) (A) (E) (E) (A) (E) (E)
       Virtual   (A) (A) (E) (E) (E) (E) (A) (E) (E) (A) (A) (E)
                 (E) (A) (E) (E) (E) (E) (A) (E) (E) (A) (A) (A)
                 (E) (E) (A) (E) (E) (E) (E) (A) (E) (E) (A) (A)
                 (E) (E) (A) (E) (E) (A) (E) (E) (E) (E) (A) (E)
                 (E) (A) (E) (E) (A) (A) (A) (E) (E) (E) (E) (E)
                 (E) (A) (E) (E) (A) (A) (E) (E) (A) (A) (E) (E)
                 (A) (E) (E) (E) (E) (A) (E) (E) (E) (E) (A) (E)
                 (E) (A) (E) (E) (A) (E) (E) (A) (A) (E) (E) (E)
                 (E) (A) (A) (E) (E) (E) (E) (A) (E) (E) (A) (A)
                 (E) (E) (A) (E) (E) (A) (A) (E) (E) (E) (E) (E)
                 (E) (A) (A) (E) (E) (A) (A) (A) (E) (E) (E) (E)
                 (A) (E) (E) (E) (E) (E) (E) (E) (E) (A) (A) (A)
                 (E) (E) (A) (A) (E) (E) (E) (E) (A) (E) (E) (E)
                 (E) (A) (A) (A) (E) (E) (A) (E) (E) (E) (E) (A)
                 (A) (E) (E) (A) (E) (E) (A) (E) (E) (A) (E) (E)
                 (A) (E) (E) (A) (E) (E) (A) (E) (E) (E) (E) (A)
                 (E) (E) (A) (A) (E) (E) (A) (E) (E) (A) (E) (E)
                 (A) (E) (E) (A) (A) (E) (E) (E) (E) (A) (A) (E)
                 (E) (A) (E) (E) (E) (E) (A) (E) (E) (A) (E) (E)
                 (E) (E) (A) (A) (A) (E) (E) (A) (A) (E) (E) (E)
                 (E) (A) (A) (E) (E) (E) (E) (A) (E) (E) (A) (E)
                 (E) (E) (E) (A) (A) (E) (E) (E) (E) (A) (E) (E)
                 (A) (E) (E) (E) (E) (A) (A) (A) (E) (E) (E) (E)
                 (A) (E) (E) (A) (A) (E) (E) (A) (E) (E) (A) (E)
                 (E) (A) (A) (E) (E) (A) (A) (E) (E) (E) (E) (A)
                 (E) (E) (E) (E) (E) (E) (A) (A) (A) (E) (E) (A)
                 (E) (E) (A) (E) (E) (A) (E) (E) (A) (A) (E) (E)
                 (E) (E) (A) (E) (E) (E) (E) (A) (A) (E) (E) (E)
                 (E) (A) (A) (E) (E) (E) (E) (E) (E) (A) (E) (E)
                 (A) (A) (A) (E) (E) (A) (A) (A) (E) (E) (E) (E)
                 (A) (E) (E) (E) (E) (E) (E) (E) (E) (A) (A) (A)
                 (E) (E) (E) (E) (E) (E) (A) (A) (E) (E) (A) (E)
                 (E) (A) (A) (E) (E) (E) (E) (E) (E) (E) (E) (A)
                 (A) (A) (A) (E) (E) (E) (E) (A) (A) (E) (E) (E)
                 (E) (A) (A) (E) (E) (A) (E) (E) (A) (E) (E) (E)
                 (E) (A) (E) (E) (A) (A) (A)
 The electronic state of the initial guess is 1-A.
 Generating alternative initial guess.
 Harris functional with IExCor=20419 diagonalized for initial guess.
 ExpMin= 2.36D-02 ExpMax= 4.58D+04 ExpMxC= 4.42D+02 IAcc=3 IRadAn=         5 AccDes= 0.00D+00
 HarFok:  IExCor=20419 AccDes= 0.00D+00 IRadAn=         5 IDoV= 1
 ScaDFX=  1.000000  1.000000  1.000000  1.000000
 FoFCou: FMM=F IPFlag=           0 FMFlag=      100000 FMFlg1=           0
         NFxFlg=           0 DoJE=T BraDBF=F KetDBF=T FulRan=T
         Omega=  0.000000  0.000000  1.000000  0.000000  0.000000 ICntrl=     500 IOpCl=  0
         NMat0=    1 NMatS0=    1 NMatT0=    0 NMatD0=    1 NMtDS0=    0 NMtDT0=    0
         I1Cent=           4 NGrid=           0.
 Petite list used in FoFCou.
 DSYEVD returned Info=       96139 IAlg= 4 N=   436 NDim=   436 NE2=     2461365 trying DSYEV.
 Harris En= -92.2578817949364    
 Leave Link  401 at Thu Feb 26 01:56:18 2015, MaxMem= 1073741824 cpu:      21.1
 (Enter /apps/gaussian/g09_c01/g09/l502.exe)
 Closed shell SCF:
 Requested convergence on RMS density matrix=1.00D-08 within 128 cycles.
 Requested convergence on MAX density matrix=1.00D-06.
 Requested convergence on             energy=1.00D-06.
 No special actions if energy rises.
 Using DIIS extrapolation, IDIIS=  1040.
 Integral symmetry usage will be decided dynamically.
       189751 words used for storage of precomputed grid.
 IEnd=     1091081 IEndB=     1091081 NGot=  1073741824 MDV=  1072959524
 LenX=  1072959524 LenY=  1072667384
 Fock matrices will be formed incrementally for  20 cycles.

 Cycle   1  Pass 1  IDiag  1:
 FoFJK:  IHMeth= 1 ICntrl=     0 DoSepK=T KAlg= 1 I1Cent= 0 FoldK=F
 FoFCou: FMM=F IPFlag=           0 FMFlag=      100000 FMFlg1=           0
         NFxFlg=           0 DoJE=T BraDBF=F KetDBF=F FulRan=T
         Omega=  0.000000  0.000000  1.000000  0.000000  0.000000 ICntrl=     500 IOpCl=  0
         NMat0=    1 NMatS0=    1 NMatT0=    0 NMatD0=    1 NMtDS0=    0 NMtDT0=    0
         I1Cent=           0 NGrid=           0.
 Petite list used in FoFCou.
 E= -96.2068616694948    
 DIIS: error= 1.63D-03 at cycle   1 NSaved=   1.
 NSaved= 1 IEnMin= 1 EnMin= -96.2068616694948     IErMin= 1 ErrMin= 1.63D-03
 ErrMax= 1.63D-03 EMaxC= 1.00D-01 BMatC= 4.27D-04 BMatP= 4.27D-04
 IDIUse=3 WtCom= 9.84D-01 WtEn= 1.63D-02
 Coeff-Com:  0.100D+01
 Coeff-En:   0.100D+01
 Coeff:      0.100D+01
 Gap=     0.728 Goal=   None    Shift=    0.000
 DSYEVD returned Info=       96139 IAlg= 4 N=   436 NDim=   436 NE2=     2460245 trying DSYEV.
 GapD=    0.728 DampG=2.000 DampE=1.000 DampFc=2.0000 IDamp=-1.
 RMSDP=2.88D-05 MaxDP=2.69D-03              OVMax= 3.45D-03

 Cycle   2  Pass 1  IDiag  1:
 RMSU=  2.03D-05    CP:  1.00D+00
 FoFJK:  IHMeth= 1 ICntrl=     0 DoSepK=T KAlg= 1 I1Cent= 0 FoldK=F
 E= -96.2069845144499     Delta-E=       -0.000122844955 Rises=F Damp=F
 DIIS: error= 4.71D-04 at cycle   2 NSaved=   2.
 NSaved= 2 IEnMin= 2 EnMin= -96.2069845144499     IErMin= 2 ErrMin= 4.71D-04
 ErrMax= 4.71D-04 EMaxC= 1.00D-01 BMatC= 3.20D-05 BMatP= 4.27D-04
 IDIUse=3 WtCom= 9.95D-01 WtEn= 4.71D-03
 Coeff-Com:  0.110D+00 0.890D+00
 Coeff-En:   0.000D+00 0.100D+01
 Coeff:      0.109D+00 0.891D+00
 Gap=     0.514 Goal=   None    Shift=    0.000
 DSYEVD returned Info=       96139 IAlg= 4 N=   436 NDim=   436 NE2=     2460245 trying DSYEV.
 RMSDP=1.06D-05 MaxDP=6.86D-04 DE=-1.23D-04 OVMax= 1.80D-03

 Cycle   3  Pass 1  IDiag  1:
 RMSU=  7.32D-06    CP:  1.00D+00  9.44D-01
 FoFJK:  IHMeth= 1 ICntrl=     0 DoSepK=T KAlg= 1 I1Cent= 0 FoldK=F
 E= -96.2069961229644     Delta-E=       -0.000011608515 Rises=F Damp=F
 DIIS: error= 3.57D-04 at cycle   3 NSaved=   3.
 NSaved= 3 IEnMin= 3 EnMin= -96.2069961229644     IErMin= 3 ErrMin= 3.57D-04
 ErrMax= 3.57D-04 EMaxC= 1.00D-01 BMatC= 1.82D-05 BMatP= 3.20D-05
 IDIUse=3 WtCom= 9.96D-01 WtEn= 3.57D-03
 Coeff-Com: -0.123D-01 0.428D+00 0.584D+00
 Coeff-En:   0.000D+00 0.339D+00 0.661D+00
 Coeff:     -0.123D-01 0.427D+00 0.585D+00
 Gap=     0.514 Goal=   None    Shift=    0.000
 DSYEVD returned Info=       96139 IAlg= 4 N=   436 NDim=   436 NE2=     2460245 trying DSYEV.
 RMSDP=4.28D-06 MaxDP=2.87D-04 DE=-1.16D-05 OVMax= 9.29D-04

 Cycle   4  Pass 1  IDiag  1:
 RMSU=  1.09D-06    CP:  1.00D+00  9.74D-01  6.30D-01
 FoFJK:  IHMeth= 1 ICntrl=     0 DoSepK=T KAlg= 1 I1Cent= 0 FoldK=F
 E= -96.2070098461061     Delta-E=       -0.000013723142 Rises=F Damp=F
 DIIS: error= 4.08D-05 at cycle   4 NSaved=   4.
 NSaved= 4 IEnMin= 4 EnMin= -96.2070098461061     IErMin= 4 ErrMin= 4.08D-05
 ErrMax= 4.08D-05 EMaxC= 1.00D-01 BMatC= 1.21D-07 BMatP= 1.82D-05
 IDIUse=1 WtCom= 1.00D+00 WtEn= 0.00D+00
 Coeff-Com: -0.522D-02 0.128D+00 0.192D+00 0.685D+00
 Coeff:     -0.522D-02 0.128D+00 0.192D+00 0.685D+00
 Gap=     0.514 Goal=   None    Shift=    0.000
 DSYEVD returned Info=       96139 IAlg= 4 N=   436 NDim=   436 NE2=     2460245 trying DSYEV.
 RMSDP=5.23D-07 MaxDP=3.41D-05 DE=-1.37D-05 OVMax= 1.53D-04

 Cycle   5  Pass 1  IDiag  1:
 RMSU=  3.57D-07    CP:  1.00D+00  9.78D-01  6.24D-01  9.71D-01
 FoFJK:  IHMeth= 1 ICntrl=     0 DoSepK=T KAlg= 1 I1Cent= 0 FoldK=F
[...]
      4        1           0.000000012   -0.000000004   -0.000000003
      5        7           0.000000000    0.000000000    0.000000032
      6        1          -0.000000068    0.000000011    0.000000000
      7        1           0.000000024   -0.000000064    0.000000000
      8        1           0.000000043    0.000000053    0.000000000
 -------------------------------------------------------------------
 Cartesian Forces:  Max     0.000000068 RMS     0.000000026
 Force constants in Cartesian coordinates: 
                1             2             3             4             5 
      1  0.637048D+00
      2  0.000000D+00  0.637048D+00
      3  0.000000D+00  0.000000D+00  0.426786D+00
      4 -0.543115D-01 -0.241411D-01 -0.784966D-02  0.492879D-01
      5 -0.241412D-01 -0.311445D+00 -0.843231D-01  0.257670D-01  0.323739D+00
      6 -0.646414D-02 -0.694342D-01 -0.740437D-01  0.808509D-02  0.868552D-01
      7 -0.226255D+00  0.123413D+00 -0.691011D-01  0.465105D-02 -0.308685D-02
      8  0.123413D+00 -0.139502D+00  0.489596D-01  0.232874D-01 -0.126839D-01
      9 -0.568998D-01  0.403152D-01 -0.740437D-01  0.930399D-02 -0.429719D-02
     10 -0.268069D+00 -0.992715D-01  0.769508D-01  0.396923D-03  0.630736D-03
     11 -0.992717D-01 -0.976880D-01  0.353635D-01 -0.257435D-01 -0.842980D-02
     12  0.633639D-01  0.291190D-01 -0.740437D-01 -0.993721D-02 -0.250645D-02
     13 -0.990890D-01  0.000000D+00  0.000000D+00 -0.531842D-03  0.737803D-03
     14  0.000000D+00 -0.990887D-01  0.000000D+00  0.737849D-03  0.732790D-02
     15  0.000000D+00  0.000000D+00 -0.166840D+00  0.343260D-03  0.368809D-02
     16  0.390933D-03  0.594537D-03 -0.208709D-03  0.362490D-03  0.472869D-04
     17  0.594599D-03  0.672657D-02 -0.224289D-02  0.473160D-04  0.866297D-03
     18 -0.315697D-02 -0.339312D-01 -0.126051D-01  0.200208D-03  0.215060D-02
     19  0.565761D-02  0.244608D-02  0.204669D-02  0.168045D-03  0.311820D-03
     20  0.244619D-02  0.145992D-02  0.940658D-03  0.751150D-03  0.217461D-03
     21  0.309637D-01  0.142316D-01 -0.126051D-01  0.299703D-03 -0.818281D-03
     22  0.462774D-02 -0.304079D-02 -0.183804D-02 -0.231091D-04 -0.266643D-03
     23 -0.304065D-02  0.248978D-02  0.130217D-02 -0.705988D-03  0.408492D-03
     24 -0.278068D-01  0.196996D-01 -0.126051D-01 -0.445318D-03 -0.748977D-03
                6             7             8             9            10 
      6  0.885889D-01
      7  0.279796D-02  0.232811D+00
      8  0.985910D-02 -0.131724D+00  0.140216D+00
      9  0.521892D-02  0.711762D-01 -0.504295D-01  0.885889D-01
     10 -0.930526D-03 -0.170973D-01 -0.107310D-01  0.713925D-02  0.277441D+00
     11  0.102061D-01  0.156433D-01  0.906441D-02 -0.735266D-02  0.105957D+00
     12  0.521892D-02 -0.837347D-02 -0.590890D-02  0.521892D-02 -0.792613D-01
     13 -0.350282D-02  0.472402D-02 -0.377231D-02 -0.308494D-01  0.600207D-02
     14 -0.376441D-01 -0.377231D-02  0.207210D-02  0.218556D-01  0.303449D-02
     15 -0.210882D-01  0.302235D-02 -0.214137D-02 -0.210881D-01 -0.336578D-02
     16  0.174737D-03 -0.255172D-03 -0.506805D-03 -0.676831D-03 -0.120570D-03
     17  0.187852D-02 -0.674751D-04  0.640678D-03  0.539285D-03  0.210374D-03
     18 -0.657280D-02 -0.858503D-03  0.149590D-03  0.133886D-02  0.871292D-03
     19 -0.128619D-03  0.721753D-03  0.275942D-03 -0.733071D-03  0.781310D-03
     20 -0.855795D-03 -0.163404D-03 -0.336371D-03  0.459790D-03  0.194519D-03
     21  0.133886D-02 -0.425974D-03  0.760145D-03  0.133895D-02 -0.196258D-02
     22 -0.316540D-04  0.699381D-03 -0.241820D-03  0.153948D-02  0.665386D-03
     23 -0.864753D-03 -0.241791D-03  0.529406D-03 -0.109059D-02 -0.246794D-04
     24  0.133895D-02  0.176237D-02 -0.124868D-02 -0.657280D-02  0.558800D-03
               11            12            13            14            15 
     11  0.955858D-01
     12 -0.364257D-01  0.885889D-01
     13  0.303448D-02  0.343522D-01  0.731009D+00
     14  0.794113D-03  0.157885D-01  0.000000D+00  0.731009D+00
     15 -0.154682D-02 -0.210881D-01  0.000000D+00  0.000000D+00  0.530900D+00
     16  0.649719D-03  0.764725D-03 -0.664436D-01 -0.277019D-01 -0.102843D-01
     17  0.505953D-03  0.404963D-03 -0.277019D-01 -0.361632D+00 -0.110542D+00
     18 -0.111683D-04  0.133895D-02 -0.108802D-01 -0.116949D+00 -0.100265D+00
     19  0.194490D-03 -0.171422D-02 -0.311826D+00 -0.113969D+00  0.100874D+00
     20  0.447477D-03 -0.787935D-03 -0.113970D+00 -0.116250D+00  0.463646D-01
     21 -0.901914D-03 -0.657280D-02  0.106721D+00  0.490518D-01 -0.100265D+00
     22 -0.464010D-03  0.805450D-03 -0.263845D+00  0.141671D+00 -0.905901D-01
     23 -0.279881D-03  0.316510D-03  0.141671D+00 -0.164231D+00  0.641775D-01
     24  0.668690D-03  0.133886D-02 -0.958404D-01  0.678968D-01 -0.100265D+00
               16            17            18            19            20 
     16  0.607836D-01
     17  0.301209D-01  0.381746D+00
     18  0.112004D-01  0.120391D+00  0.105129D+00
     19 -0.133336D-03 -0.534845D-03 -0.807246D-03  0.327591D+00
     20 -0.322317D-01 -0.116523D-01  0.142970D-01  0.123920D+00  0.114939D+00
     21 -0.137552D-01 -0.397985D-02  0.581840D-02 -0.109862D+00 -0.504959D-01
     22  0.541580D-02 -0.266895D-02  0.343095D-02 -0.229609D-01  0.190522D-01
     23  0.290279D-01 -0.172014D-01  0.139023D-01 -0.126446D-01  0.111753D-01
     24  0.127852D-01 -0.644940D-02  0.581840D-02  0.103242D-01 -0.992242D-02
               21            22            23            24 
     21  0.105129D+00
     22 -0.119779D-01  0.275420D+00
     23 -0.784759D-02 -0.154041D+00  0.167110D+00
     24  0.581840D-02  0.986618D-01 -0.698956D-01  0.105129D+00
 Red2BG is reusing G-inverse.
 Force constants in internal coordinates: 
                1             2             3             4             5 
      1  0.354722D+00
      2  0.198149D-02  0.354722D+00
      3  0.198151D-02  0.198148D-02  0.354721D+00
      4  0.382071D-02  0.382069D-02  0.382059D-02  0.279604D+00
      5 -0.131440D-02  0.346110D-03  0.345939D-03  0.547818D-02  0.429500D+00
      6  0.346111D-03  0.345949D-03 -0.131436D-02  0.547808D-02  0.292675D-02
      7  0.345937D-03 -0.131440D-02  0.346108D-03  0.547815D-02  0.292674D-02
      8  0.371844D-02  0.371964D-02 -0.125476D-02 -0.256471D-01  0.648582D-04
      9  0.371963D-02 -0.125476D-02  0.371845D-02 -0.256471D-01  0.648383D-04
     10  0.775757D-03 -0.360851D-02 -0.360889D-02  0.267186D-01  0.234382D-02
     11 -0.125476D-02  0.371844D-02  0.371965D-02 -0.256471D-01  0.972476D-03
     12 -0.360885D-02  0.775686D-03 -0.360853D-02  0.267186D-01 -0.174632D-02
     13 -0.360854D-02 -0.360882D-02  0.775766D-03  0.267186D-01 -0.174573D-02
     14  0.624148D-03  0.124090D-03  0.124220D-03  0.140351D-01 -0.470753D-02
     15  0.124080D-03  0.124209D-03  0.624120D-03  0.140351D-01 -0.414050D-02
     16  0.124196D-03  0.624122D-03  0.124124D-03  0.140350D-01 -0.414045D-02
     17 -0.398016D-03 -0.136133D-03 -0.398023D-03 -0.149960D-01  0.680266D-02
     18 -0.398007D-03 -0.398012D-03 -0.136139D-03 -0.149959D-01  0.680419D-02
     19 -0.136130D-03 -0.398005D-03 -0.398033D-03 -0.149959D-01  0.270854D-03
     20  0.000000D+00 -0.283230D-02  0.283220D-02  0.000000D+00  0.104178D-05
     21  0.295789D-05 -0.283673D-02  0.283444D-02  0.000000D+00  0.263841D-02
     22 -0.147989D-05 -0.283447D-02  0.283661D-02  0.000000D+00 -0.263831D-02
     23  0.283444D-02  0.295661D-05 -0.283675D-02  0.000000D+00  0.423479D-03
     24  0.283661D-02 -0.146982D-05 -0.283451D-02  0.000000D+00  0.306085D-02
     25  0.283218D-02  0.000000D+00 -0.283235D-02  0.000000D+00 -0.221587D-02
     26 -0.283449D-02  0.283659D-02 -0.145271D-05  0.000000D+00 -0.421713D-03
     27 -0.283232D-02  0.283217D-02  0.000000D+00  0.000000D+00  0.221565D-02
     28 -0.283676D-02  0.283443D-02  0.295028D-05  0.000000D+00 -0.306106D-02
                6             7             8             9            10 
      6  0.429500D+00
      7  0.292673D-02  0.429500D+00
      8  0.972478D-03  0.648307D-04  0.531757D-01
      9  0.648641D-04  0.972474D-03  0.123121D-01  0.531757D-01
     10 -0.174633D-02 -0.174570D-02 -0.460319D-01 -0.460309D-01  0.133292D+00
     11  0.648358D-04  0.648569D-04  0.123121D-01  0.123121D-01  0.110126D-01
     12 -0.174569D-02  0.234382D-02 -0.460309D-01  0.110126D-01 -0.244281D-01
     13  0.234379D-02 -0.174633D-02  0.110126D-01 -0.460319D-01 -0.244280D-01
     14 -0.414048D-02 -0.414049D-02 -0.387714D-02 -0.387724D-02  0.170784D-01
     15 -0.470754D-02 -0.414045D-02  0.352115D-02 -0.387714D-02 -0.633407D-02
     16 -0.414048D-02 -0.470755D-02 -0.387725D-02  0.352115D-02 -0.633420D-02
     17  0.680420D-02  0.270851D-03  0.566125D-03  0.339082D-02 -0.451646D-02
     18  0.270856D-03  0.680267D-02  0.339083D-02  0.566098D-03 -0.451650D-02
     19  0.680267D-02  0.680420D-02  0.566104D-03  0.566125D-03  0.432094D-02
     20 -0.221588D-02  0.221566D-02 -0.587815D-02  0.587770D-02  0.000000D+00
     21  0.423459D-03 -0.306106D-02 -0.540050D-02  0.492249D-02  0.155499D-02
     22  0.306084D-02 -0.421717D-03 -0.492294D-02  0.540015D-02 -0.155385D-02
     23 -0.306105D-02  0.263841D-02  0.492249D-02  0.477684D-03  0.746983D-02
     24 -0.421716D-03 -0.263830D-02  0.540014D-02 -0.477526D-03  0.902432D-02
     25  0.221567D-02  0.104058D-05  0.587770D-02  0.000000D+00  0.591548D-02
     26 -0.263830D-02  0.306084D-02 -0.477530D-03 -0.492295D-02 -0.747012D-02
     27  0.103842D-05 -0.221588D-02  0.000000D+00 -0.587816D-02 -0.591563D-02
     28  0.263842D-02  0.423466D-03  0.477679D-03 -0.540050D-02 -0.902447D-02
               11            12            13            14            15 
     11  0.531757D-01
     12 -0.460319D-01  0.133292D+00
     13 -0.460309D-01 -0.244281D-01  0.133292D+00
     14  0.352115D-02 -0.633405D-02 -0.633422D-02  0.100526D+00
     15 -0.387723D-02 -0.633422D-02  0.170784D-01 -0.181333D-01  0.100526D+00
     16 -0.387715D-02  0.170784D-01 -0.633409D-02 -0.181333D-01 -0.181333D-01
     17  0.566098D-03  0.432094D-02 -0.451649D-02 -0.408160D-01 -0.408160D-01
     18  0.566131D-03 -0.451648D-02  0.432095D-02 -0.408160D-01  0.129729D-01
     19  0.339083D-02 -0.451651D-02 -0.451645D-02  0.129729D-01 -0.408160D-01
     20  0.000000D+00 -0.591563D-02  0.591547D-02  0.000000D+00 -0.252987D-02
     21  0.477685D-03 -0.902448D-02  0.746982D-02  0.406684D-02  0.153711D-02
     22 -0.477527D-03 -0.747013D-02  0.902432D-02 -0.406711D-02  0.560408D-02
     23 -0.540050D-02  0.155498D-02 -0.902447D-02  0.153712D-02 -0.560415D-02
     24 -0.492295D-02 -0.155386D-02 -0.747011D-02  0.560408D-02 -0.153716D-02
     25 -0.587816D-02  0.000000D+00 -0.591561D-02 -0.252987D-02  0.252981D-02
     26  0.540015D-02  0.902433D-02 -0.155387D-02 -0.153715D-02 -0.406711D-02
     27  0.587770D-02  0.591548D-02  0.000000D+00  0.252981D-02  0.000000D+00
     28  0.492249D-02  0.746983D-02  0.155499D-02 -0.560413D-02  0.406684D-02
               16            17            18            19            20 
     16  0.100526D+00
     17  0.129729D-01  0.540983D-01
     18 -0.408160D-01  0.963072D-02  0.540983D-01
     19 -0.408160D-01  0.963072D-02  0.963072D-02  0.540983D-01
     20  0.252980D-02 -0.723001D-02  0.723013D-02  0.000000D+00  0.144529D-01
     21 -0.560414D-02  0.609540D-02  0.567431D-03 -0.666262D-02  0.354951D-02
     22 -0.153716D-02 -0.567307D-03 -0.609529D-02  0.666279D-02  0.354958D-02
     23  0.406685D-02 -0.666263D-02  0.609540D-02  0.567425D-03  0.398046D-02
     24 -0.406710D-02  0.666279D-02 -0.567302D-03 -0.609529D-02 -0.692293D-02
     25  0.000000D+00  0.000000D+00 -0.723002D-02  0.723013D-02 -0.692286D-02
     26  0.560407D-02 -0.609529D-02  0.666279D-02 -0.567305D-03  0.398052D-02
     27 -0.252987D-02  0.723012D-02  0.000000D+00 -0.723002D-02 -0.692287D-02
     28  0.153712D-02  0.567418D-03 -0.666263D-02  0.609540D-02 -0.692280D-02
               21            22            23            24            25 
     21  0.150978D-01
     22  0.387204D-02  0.150980D-01
     23 -0.724533D-02 -0.756786D-02  0.150978D-01
     24  0.430298D-02 -0.724540D-02  0.387204D-02  0.150980D-01
     25 -0.692280D-02  0.398053D-02  0.354951D-02  0.354957D-02  0.144529D-01
     26 -0.756786D-02 -0.724541D-02  0.430298D-02 -0.724540D-02 -0.692294D-02
     27  0.398045D-02 -0.692295D-02 -0.692281D-02  0.398052D-02 -0.692288D-02
     28 -0.724533D-02  0.430298D-02 -0.724534D-02 -0.756786D-02  0.398045D-02
               26            27            28 
     26  0.150980D-01
     27  0.354958D-02  0.144529D-01
     28  0.387204D-02  0.354951D-02  0.150978D-01
 Leave Link  716 at Thu Feb 26 07:54:47 2015, MaxMem= 1073741824 cpu:       0.2
 (Enter /apps/gaussian/g09_c01/g09/l9999.exe)
 1\1\GINC-CX1-1-15-4\Freq\RCAM-B3LYP\Aug-CC-pVQZ\C1H6N1(1+)\JMF02\26-Fe
 b-2015\0\\#p opt(VeryTight,CalcAll,Raman) Integral(Grid=UltraFine) CAM
 -b3lyp/AUG-cc-pVQZ\\Autjob by noodles.sh | Great noodly basis sets\\1,
 1\C,-0.0000000526,0.0000000526,-0.7942474694\H,-0.0953159351,-1.024168
 4639,-1.1366632684\H,-0.8392980645,0.5946302865,-1.1366632684\H,0.9346
 138417,0.4295383353,-1.1366632684\N,-0.0000000526,0.0000000526,0.70831
 9858\H,0.0880860199,0.9467425777,1.0809388094\H,-0.8639461664,-0.39708
 64333,1.0809388094\H,0.7758599886,-0.5496559864,1.0809388094\\Version=
 EM64L-G09RevC.01\State=1-A\HF=-96.2070102\RMSD=3.845e-09\RMSF=2.601e-0
 8\ZeroPoint=0.0795997\Thermal=0.0830611\Dipole=0.,0.,0.8566849\DipoleD
 eriv=0.0813299,0.0000033,0.0000032,0.0000011,0.0813278,0.0000003,-0.00
 00015,-0.0000017,0.5452829,0.1222396,-0.0077476,0.001086,-0.0077454,0.
 0397251,0.0116822,0.0035119,0.037731,0.0539922,0.0670627,0.0396018,0.0
 095736,0.0396029,0.0949034,-0.0067814,0.0309204,-0.0219072,0.0539922,0
 .0536442,-0.031858,-0.0106616,-0.031856,0.1083194,-0.0049013,-0.034432
 ,-0.0158238,0.0539929,-0.1617784,0.0000023,0.0000019,-0.0000012,-0.161
 7813,0.0000003,-0.0000007,0.0000003,-0.4096434,0.2492725,0.0056109,0.0
 045061,0.0056124,0.3090637,0.0484292,0.0034904,0.0375159,0.2341274,0.2
 989751,0.0230832,-0.0441941,0.0230848,0.2593608,-0.0203123,-0.0342342,
 -0.0157347,0.2341276,0.2892559,-0.0286958,0.0396874,-0.0286958,0.26908
 ,-0.0281166,0.0307446,-0.0217805,0.2341275\Polar=19.1363623,0.0000118,
 19.136351,0.000034,-0.0000076,22.0636832\PolarDeriv=-0.8750393,-3.0645
 022,0.8771977,2.1993383,-0.0007161,0.001288,-3.0644634,0.8760385,3.064
 7411,-0.0004542,2.1993504,-0.0010705,2.4852847,-0.0002449,2.4866504,0.
 0000479,-0.000299,-3.5622534,-0.2058651,-0.6194734,-0.4502258,-0.81230
 15,-0.1064675,-0.2200518,-1.0477934,-0.4115654,-6.0215517,-0.1068264,-
 1.9595978,-2.3682095,-0.7880007,-0.0810197,-1.652063,-0.1350428,-1.451
 7844,-1.4844561,-3.903827,1.8355081,-1.8917965,-1.5799786,0.5507666,-1
 .9421249,2.083821,-1.5390701,2.0205543,0.5501913,-1.1914217,1.3751431,
 -1.3654871,0.4143978,-1.0743354,-1.1894606,0.8429497,-1.4841244,4.9089
 148,1.5846817,1.5407315,-1.7660934,-0.4434318,2.161523,1.7646387,1.150
 4752,1.1996575,-0.4433549,-1.0070865,0.993513,-1.5058137,-0.3334628,-0
 .9332555,1.3245048,0.608716,-1.4842258,0.6073893,2.1242547,-0.6073469,
 -2.1417135,0.0006751,-0.0007569,2.1241595,-0.6069847,-2.1235925,0.0004
 374,-2.1425601,0.0007233,-1.8635616,0.0001619,-1.8649793,-0.0001716,0.
 0001223,2.5480224,0.194806,0.6332543,0.315339,0.7516897,0.1150521,0.21
 94311,0.8694456,0.2938074,4.6162929,0.1155991,1.9825047,2.3590478,0.57
 7415,0.0815484,1.4476374,0.1366659,1.4656402,1.822689,-3.8242417,-1.14
 60978,-1.1819481,1.7745996,0.474897,-2.1527557,-1.2447353,-0.9667759,-
 1.0556679,0.4750787,0.9594695,-0.9894677,1.3006566,0.3362472,0.7243116
 ,-1.3373614,-0.6143518,1.8223708,3.0978888,-1.3476574,1.3979166,1.5744
 25,-0.5907703,1.9334336,-1.4851251,1.2040462,-1.7002806,-0.5906819,1.1
 593485,-1.3697066,1.159603,-0.4175916,0.8660297,1.20083,-0.8509959,1.8
 220022\HyperPolar=0.4498362,1.5729084,-0.4501279,-1.5759362,-2.5747313
 ,-0.0001114,-2.5751612,-0.0000348,0.0000577,4.5510156\PG=C03 [C3(C1N1)
 ,X(H6)]\NImag=0\\0.63704798,-0.00000030,0.63704786,-0.00000015,-0.0000
 0005,0.42678594,-0.05431145,-0.02414114,-0.00784966,0.04928794,-0.0241
 4122,-0.31144537,-0.08432306,0.02576696,0.32373892,-0.00646414,-0.0694
 3424,-0.07404365,0.00808509,0.08685517,0.08858894,-0.22625509,0.123412
 91,-0.06910107,0.00465105,-0.00308685,0.00279796,0.23281133,0.12341297
 ,-0.13950195,0.04895959,0.02328742,-0.01268392,0.00985910,-0.13172424,
 0.14021553,-0.05689978,0.04031522,-0.07404367,0.00930399,-0.00429719,0
 .00521892,0.07117625,-0.05042948,0.08858894,-0.26806872,-0.09927153,0.
 07695080,0.00039692,0.00063074,-0.00093053,-0.01709728,-0.01073102,0.0
 0713925,0.27744102,-0.09927166,-0.09768803,0.03536350,-0.02574354,-0.0
 0842980,0.01020609,0.01564326,0.00906441,-0.00735266,0.10595728,0.0955
 8584,0.06336390,0.02911901,-0.07404371,-0.00993721,-0.00250645,0.00521
 892,-0.00837347,-0.00590890,0.00521892,-0.07926133,-0.03642570,0.08858
 894,-0.09908904,0.00000019,0.00000014,-0.00053184,0.00073780,-0.003502
 82,0.00472402,-0.00377231,-0.03084936,0.00600207,0.00303448,0.03435217
 ,0.73100865,-0.00000020,-0.09908871,0.00000011,0.00073785,0.00732790,-
 0.03764413,-0.00377231,0.00207210,0.02185560,0.00303449,0.00079411,0.0
 1578853,-0.00000003,0.73100854,0.00000034,0.00000008,-0.16683962,0.000
 34326,0.00368809,-0.02108817,0.00302235,-0.00214137,-0.02108812,-0.003
 36578,-0.00154682,-0.02108814,-0.00000015,0.,0.53090039,0.00039093,0.0
 0059454,-0.00020871,0.00036249,0.00004729,0.00017474,-0.00025517,-0.00
 050681,-0.00067683,-0.00012057,0.00064972,0.00076473,-0.06644365,-0.02
 770191,-0.01028432,0.06078359,0.00059460,0.00672657,-0.00224289,0.0000
 4732,0.00086630,0.00187852,-0.00006748,0.00064068,0.00053928,0.0002103
 7,0.00050595,0.00040496,-0.02770189,-0.36163225,-0.11054209,0.03012094
 ,0.38174633,-0.00315697,-0.03393119,-0.01260514,0.00020021,0.00215060,
 -0.00657280,-0.00085850,0.00014959,0.00133886,0.00087129,-0.00001117,0
 .00133895,-0.01088015,-0.11694859,-0.10026541,0.01120042,0.12039146,0.
 10512877,0.00565761,0.00244608,0.00204669,0.00016804,0.00031182,-0.000
 12862,0.00072175,0.00027594,-0.00073307,0.00078131,0.00019449,-0.00171
 422,-0.31182571,-0.11396938,0.10087449,-0.00013334,-0.00053485,-0.0008
 0725,0.32759115,0.00244619,0.00145992,0.00094066,0.00075115,0.00021746
 ,-0.00085580,-0.00016340,-0.00033637,0.00045979,0.00019452,0.00044748,
 -0.00078794,-0.11396955,-0.11625025,0.04636459,-0.03223172,-0.01165227
 ,0.01429699,0.12392048,0.11493877,0.03096371,0.01423161,-0.01260509,0.
 00029970,-0.00081828,0.00133886,-0.00042597,0.00076014,0.00133895,-0.0
 0196258,-0.00090191,-0.00657280,0.10672052,0.04905177,-0.10026547,-0.0
 1375519,-0.00397985,0.00581840,-0.10986227,-0.05049588,0.10512877,0.00
 462774,-0.00304079,-0.00183804,-0.00002311,-0.00026664,-0.00003165,0.0
 0069938,-0.00024182,0.00153948,0.00066539,-0.00046401,0.00080545,-0.26
 384457,0.14167140,-0.09059009,0.00541580,-0.00266895,0.00343095,-0.022
 96088,0.01905224,-0.01197793,0.27542015,-0.00304065,0.00248978,0.00130
 217,-0.00070599,0.00040849,-0.00086475,-0.00024179,0.00052941,-0.00109
 059,-0.00002468,-0.00027988,0.00031651,0.14167136,-0.16423140,0.064177
 55,0.02902792,-0.01720141,0.01390227,-0.01264464,0.01117527,-0.0078475
 9,-0.15404142,0.16710977,-0.02780681,0.01969956,-0.01260508,-0.0004453
 2,-0.00074898,0.00133895,0.00176237,-0.00124868,-0.00657280,0.00055880
 ,0.00066869,0.00133886,-0.09584036,0.06789677,-0.10026545,0.01278518,-
 0.00644940,0.00581840,0.01032424,-0.00992242,0.00581840,0.09866185,-0.
 06989558,0.10512877\\0.,0.,0.00000002,0.,0.,0.,0.,-0.00000001,0.,-0.00
 000001,0.,0.,0.,0.,-0.00000003,0.00000007,-0.00000001,0.,-0.00000002,0
 .00000006,0.,-0.00000004,-0.00000005,0.\\\@


 IN THE WOODS WE RETURN TO REASON AND FAITH.

                                 -- EMERSON
 Job cpu time:  2 days  9 hours 28 minutes 47.9 seconds.
 File lengths (MBytes):  RWF=    161 Int=      0 D2E=      0 Chk=     13 Scr=      1
 Normal termination of Gaussian 09 at Thu Feb 26 07:54:47 2015.
