 Entering Gaussian System, Link 0=g03
 Input=MA_CAM-b3lyp_6-31gs.com
 Output=MA_CAM-b3lyp_6-31gs.log
 Initial command:
 /apps/gaussian/g09_c01/g09/l1.exe /tmp/pbs.8910295.cx1b/Gau-10342.inp -scrdir=/tmp/pbs.8910295.cx1b/
 Entering Link 1 = /apps/gaussian/g09_c01/g09/l1.exe PID=     10344.
  
 Copyright (c) 1988,1990,1992,1993,1995,1998,2003,2009,2011,
            Gaussian, Inc.  All Rights Reserved.
  
 This is part of the Gaussian(R) 09 program.  It is based on
 the Gaussian(R) 03 system (copyright 2003, Gaussian, Inc.),
 the Gaussian(R) 98 system (copyright 1998, Gaussian, Inc.),
 the Gaussian(R) 94 system (copyright 1995, Gaussian, Inc.),
 the Gaussian 92(TM) system (copyright 1992, Gaussian, Inc.),
 the Gaussian 90(TM) system (copyright 1990, Gaussian, Inc.),
 the Gaussian 88(TM) system (copyright 1988, Gaussian, Inc.),
 the Gaussian 86(TM) system (copyright 1986, Carnegie Mellon
 University), and the Gaussian 82(TM) system (copyright 1983,
 Carnegie Mellon University). Gaussian is a federally registered
 trademark of Gaussian, Inc.
  
 This software contains proprietary and confidential information,
 including trade secrets, belonging to Gaussian, Inc.
  
 This software is provided under written license and may be
 used, copied, transmitted, or stored only in accord with that
 written license.
  
 The following legend is applicable only to US Government
 contracts under FAR:
  
                    RESTRICTED RIGHTS LEGEND
  
 Use, reproduction and disclosure by the US Government is
 subject to restrictions as set forth in subparagraphs (a)
 and (c) of the Commercial Computer Software - Restricted
 Rights clause in FAR 52.227-19.
  
 Gaussian, Inc.
 340 Quinnipiac St., Bldg. 40, Wallingford CT 06492
  
  
 ---------------------------------------------------------------
 Warning -- This program may not be used in any manner that
 competes with the business of Gaussian, Inc. or will provide
 assistance to any competitor of Gaussian, Inc.  The licensee
 of this program is prohibited from giving any competitor of
 Gaussian, Inc. access to this program.  By using this program,
 the user acknowledges that Gaussian, Inc. is engaged in the
 business of creating and licensing software in the field of
 computational chemistry and represents and warrants to the
 licensee that it is not a competitor of Gaussian, Inc. and that
 it will not use this program in any manner prohibited above.
 ---------------------------------------------------------------
  

 Cite this work as:
 Gaussian 09, Revision C.01,
 M. J. Frisch, G. W. Trucks, H. B. Schlegel, G. E. Scuseria, 
 M. A. Robb, J. R. Cheeseman, G. Scalmani, V. Barone, B. Mennucci, 
 G. A. Petersson, H. Nakatsuji, M. Caricato, X. Li, H. P. Hratchian, 
 A. F. Izmaylov, J. Bloino, G. Zheng, J. L. Sonnenberg, M. Hada, 
 M. Ehara, K. Toyota, R. Fukuda, J. Hasegawa, M. Ishida, T. Nakajima, 
 Y. Honda, O. Kitao, H. Nakai, T. Vreven, J. A. Montgomery, Jr., 
 J. E. Peralta, F. Ogliaro, M. Bearpark, J. J. Heyd, E. Brothers, 
 K. N. Kudin, V. N. Staroverov, T. Keith, R. Kobayashi, J. Normand, 
 K. Raghavachari, A. Rendell, J. C. Burant, S. S. Iyengar, J. Tomasi, 
 M. Cossi, N. Rega, J. M. Millam, M. Klene, J. E. Knox, J. B. Cross, 
 V. Bakken, C. Adamo, J. Jaramillo, R. Gomperts, R. E. Stratmann, 
 O. Yazyev, A. J. Austin, R. Cammi, C. Pomelli, J. W. Ochterski, 
 R. L. Martin, K. Morokuma, V. G. Zakrzewski, G. A. Voth, 
 P. Salvador, J. J. Dannenberg, S. Dapprich, A. D. Daniels, 
 O. Farkas, J. B. Foresman, J. V. Ortiz, J. Cioslowski, 
 and D. J. Fox, Gaussian, Inc., Wallingford CT, 2010.
 
 ******************************************
 Gaussian 09:  EM64L-G09RevC.01 23-Sep-2011
                26-Feb-2015 
 ******************************************
 %Chk=MA_CAM-b3lyp_6-31gs.chk
 %Mem=8Gb
 %nproc=8
 Will use up to    8 processors via shared memory.
 ----------------------------------------------------------------------
 #p opt(VeryTight,CalcAll,Raman) Integral(Grid=UltraFine) CAM-b3lyp/6-3
 1g*
 ----------------------------------------------------------------------
 1/7=1,10=4,14=-1,18=20,19=15,26=3,38=1/1,3;
 2/9=110,12=2,17=6,18=5,40=1/2;
 3/5=1,6=6,7=1,11=2,16=1,25=1,30=1,71=2,74=-40,75=-5/1,2,3;
 4//1;
 5/5=2,38=5/2;
 8/6=4,10=90,11=11/1;
 10/13=10,15=4/2;
 11/6=3,8=1,9=11,15=111,16=1/1,2,10;
 10/6=1/2;
 6/7=2,8=2,9=2,10=2,18=1,28=1/1;
 7/10=1,25=1/1,2,3,16;
 1/7=1,10=4,14=-1,18=20,19=15/3(3);
 2/9=110/2;
 7/8=1,9=1,25=1,44=-1/16;
 99//99;
 2/9=110/2;
 3/5=1,6=6,7=1,11=2,16=1,25=1,30=1,71=2,74=-40,75=-5/1,2,3;
 4/5=5,16=3/1;
 5/5=2,38=5/2;
 8/6=4,10=90,11=11/1;
 10/13=10,15=4/2;
 11/6=3,8=1,9=11,15=111,16=1/1,2,10;
 10/6=1/2;
 7/10=1,25=1/1,2,3,16;
 1/7=1,10=4,14=-1,18=20,19=15/3(-9);
 2/9=110/2;
 6/7=2,8=2,9=2,10=2,18=1,19=2,28=1/1;
 7/8=1,9=1,25=1,44=-1/16;
 99//99;
 Leave Link    1 at Thu Feb 26 00:42:28 2015, MaxMem= 1073741824 cpu:       0.2
 (Enter /apps/gaussian/g09_c01/g09/l101.exe)
 ----------------------------------------------
 Autjob by noodles.sh | Great noodly basis sets
 ----------------------------------------------
 Charge =  1 Multiplicity = 1
 Symbolic Z-Matrix:
 C                     0.        0.       -0.80446 
 H                    -0.09587  -1.03096  -1.1445 
 H                    -0.8449    0.59851  -1.1445 
 H                     0.94078   0.43245  -1.1445 
 N                     0.        0.        0.71256 
 H                     0.08865   0.95193   1.09076 
 H                    -0.86872  -0.39919   1.09076 
 H                     0.78007  -0.55274   1.09076 
 
 NAtoms=      8 NQM=        0 NQMF=       0 NMMI=      8 NMMIF=      0
                NMic=       0 NMicF=      0.
                    Isotopes and Nuclear Properties:
 (Nuclear quadrupole moments (NQMom) in fm**2, nuclear magnetic moments (NMagM)
  in nuclear magnetons)

  Atom         1           2           3           4           5           6           7           8
 IAtWgt=          12           1           1           1          14           1           1           1
 AtmWgt=  12.0000000   1.0078250   1.0078250   1.0078250  14.0030740   1.0078250   1.0078250   1.0078250
 NucSpn=           0           1           1           1           2           1           1           1
 AtZEff=   0.0000000   0.0000000   0.0000000   0.0000000   0.0000000   0.0000000   0.0000000   0.0000000
 NQMom=    0.0000000   0.0000000   0.0000000   0.0000000   2.0440000   0.0000000   0.0000000   0.0000000
 NMagM=    0.0000000   2.7928460   2.7928460   2.7928460   0.4037610   2.7928460   2.7928460   2.7928460
 Leave Link  101 at Thu Feb 26 00:42:28 2015, MaxMem= 1073741824 cpu:       1.1
 (Enter /apps/gaussian/g09_c01/g09/l103.exe)

 GradGradGradGradGradGradGradGradGradGradGradGradGradGradGradGradGradGrad
 Berny optimization.
 Initialization pass.
                           ----------------------------
                           !    Initial Parameters    !
                           ! (Angstroms and Degrees)  !
 --------------------------                            --------------------------
 ! Name  Definition              Value          Derivative Info.                !
 --------------------------------------------------------------------------------
 ! R1    R(1,2)                  1.0898         calculate D2E/DX2 analytically  !
 ! R2    R(1,3)                  1.0898         calculate D2E/DX2 analytically  !
 ! R3    R(1,4)                  1.0898         calculate D2E/DX2 analytically  !
 ! R4    R(1,5)                  1.517          calculate D2E/DX2 analytically  !
 ! R5    R(5,6)                  1.0281         calculate D2E/DX2 analytically  !
 ! R6    R(5,7)                  1.0281         calculate D2E/DX2 analytically  !
 ! R7    R(5,8)                  1.0281         calculate D2E/DX2 analytically  !
 ! A1    A(2,1,3)              110.7303         calculate D2E/DX2 analytically  !
 ! A2    A(2,1,4)              110.7304         calculate D2E/DX2 analytically  !
 ! A3    A(2,1,5)              108.1807         calculate D2E/DX2 analytically  !
 ! A4    A(3,1,4)              110.7303         calculate D2E/DX2 analytically  !
 ! A5    A(3,1,5)              108.1807         calculate D2E/DX2 analytically  !
 ! A6    A(4,1,5)              108.1807         calculate D2E/DX2 analytically  !
 ! A7    A(1,5,6)              111.5829         calculate D2E/DX2 analytically  !
 ! A8    A(1,5,7)              111.583          calculate D2E/DX2 analytically  !
 ! A9    A(1,5,8)              111.583          calculate D2E/DX2 analytically  !
 ! A10   A(6,5,7)              107.2794         calculate D2E/DX2 analytically  !
 ! A11   A(6,5,8)              107.2794         calculate D2E/DX2 analytically  !
 ! A12   A(7,5,8)              107.2794         calculate D2E/DX2 analytically  !
 ! D1    D(2,1,5,6)            179.9926         calculate D2E/DX2 analytically  !
 ! D2    D(2,1,5,7)            -60.0075         calculate D2E/DX2 analytically  !
 ! D3    D(2,1,5,8)             59.9926         calculate D2E/DX2 analytically  !
 ! D4    D(3,1,5,6)            -60.0075         calculate D2E/DX2 analytically  !
 ! D5    D(3,1,5,7)             59.9925         calculate D2E/DX2 analytically  !
 ! D6    D(3,1,5,8)            179.9926         calculate D2E/DX2 analytically  !
 ! D7    D(4,1,5,6)             59.9925         calculate D2E/DX2 analytically  !
 ! D8    D(4,1,5,7)            179.9925         calculate D2E/DX2 analytically  !
 ! D9    D(4,1,5,8)            -60.0075         calculate D2E/DX2 analytically  !
 --------------------------------------------------------------------------------
 Trust Radius=3.00D-01 FncErr=1.00D-07 GrdErr=1.00D-06
 Number of steps in this run=     38 maximum allowed number of steps=    100.
 GradGradGradGradGradGradGradGradGradGradGradGradGradGradGradGradGradGrad

 Leave Link  103 at Thu Feb 26 00:42:28 2015, MaxMem= 1073741824 cpu:       0.0
 (Enter /apps/gaussian/g09_c01/g09/l202.exe)
                          Input orientation:                          
 ---------------------------------------------------------------------
 Center     Atomic      Atomic             Coordinates (Angstroms)
 Number     Number       Type             X           Y           Z
 ---------------------------------------------------------------------
      1          6           0        0.000000    0.000000   -0.804455
      2          1           0       -0.095874   -1.030964   -1.144495
      3          1           0       -0.844904    0.598511   -1.144495
      4          1           0        0.940777    0.432453   -1.144495
      5          7           0        0.000000    0.000000    0.712562
      6          1           0        0.088649    0.951929    1.090759
      7          1           0       -0.868719   -0.399192    1.090759
      8          1           0        0.780070   -0.552736    1.090759
 ---------------------------------------------------------------------
                    Distance matrix (angstroms):
                    1          2          3          4          5
     1  C    0.000000
     2  H    1.089819   0.000000
     3  H    1.089819   1.793386   0.000000
     4  H    1.089818   1.793386   1.793386   0.000000
     5  N    1.517017   2.126203   2.126203   2.126203   0.000000
     6  H    2.122702   2.993706   2.448017   2.447925   1.028134
     7  H    2.122702   2.448017   2.447925   2.993705   1.028134
     8  H    2.122702   2.447926   2.993705   2.448016   1.028134
                    6          7          8
     6  H    0.000000
     7  H    1.655923   0.000000
     8  H    1.655923   1.655923   0.000000
 Stoichiometry    CH6N(1+)
 Framework group  C3[C3(CN),X(H6)]
 Deg. of freedom     6
 Full point group                 C3      NOp   3
 Largest Abelian subgroup         C1      NOp   1
 Largest concise Abelian subgroup C1      NOp   1
                         Standard orientation:                         
 ---------------------------------------------------------------------
 Center     Atomic      Atomic             Coordinates (Angstroms)
 Number     Number       Type             X           Y           Z
 ---------------------------------------------------------------------
      1          6           0        0.000000    0.000000   -0.804455
      2          1           0        1.030964   -0.095874   -1.144495
      3          1           0       -0.598511   -0.844904   -1.144495
      4          1           0       -0.432453    0.940778   -1.144495
      5          7           0        0.000000    0.000000    0.712562
      6          1           0       -0.951929    0.088649    1.090759
      7          1           0        0.399192   -0.868719    1.090759
      8          1           0        0.552737    0.780070    1.090759
 ---------------------------------------------------------------------
 Rotational constants (GHZ):     84.1605103     19.8694623     19.8694623
 Leave Link  202 at Thu Feb 26 00:42:28 2015, MaxMem= 1073741824 cpu:       0.1
 (Enter /apps/gaussian/g09_c01/g09/l301.exe)
 Standard basis: 6-31G(d) (6D, 7F)
 Ernie: Thresh=  0.10000D-02 Tol=  0.10000D-05 Strict=F.
 There are    42 symmetry adapted basis functions of A   symmetry.
 Integral buffers will be    131072 words long.
 Raffenetti 2 integral format.
 Two-electron integral symmetry is turned on.
    42 basis functions,    80 primitive gaussians,    42 cartesian basis functions
     9 alpha electrons        9 beta electrons
       nuclear repulsion energy        47.5846100594 Hartrees.
 IExCor=20419 DFT=T Ex+Corr=CAM-B3LYP ExCW=0 ScaHFX=  1.000000
 ScaDFX=  1.000000  1.000000  1.000000  0.810000 ScalE2=  1.000000  1.000000
 IRadAn=      5 IRanWt=     -1 IRanGd=            0 ICorTp=0
  HFx wShort=  0.000000 wLong=  0.330000 cFull=  0.190000 cShort=  0.000000 cLong=  0.460000
  DFx wShort=  0.000000 wLong=  0.330000 cFull=  0.190000 cShort=  0.000000 cLong=  0.460000
 NAtoms=    8 NActive=    8 NUniq=    4 SFac= 4.00D+00 NAtFMM=   60 NAOKFM=F Big=F
 Leave Link  301 at Thu Feb 26 00:42:29 2015, MaxMem= 1073741824 cpu:       0.3
 (Enter /apps/gaussian/g09_c01/g09/l302.exe)
 NPDir=0 NMtPBC=     1 NCelOv=     1 NCel=       1 NClECP=     1 NCelD=      1
         NCelK=      1 NCelE2=     1 NClLst=     1 CellRange=     0.0.
 One-electron integrals computed using PRISM.
 NBasis=    42 RedAO= T  NBF=    42
 NBsUse=    42 1.00D-06 NBFU=    42
 Precomputing XC quadrature grid using
 IXCGrd= 2 IRadAn=           5 IRanWt=          -1 IRanGd=           0 AccXCQ= 0.00D+00.
 NRdTot=     652 NPtTot=      172830 NUsed=      177511 NTot=      177543
 NSgBfM=    42    42    42    42    42 NAtAll=     8     8.
 Leave Link  302 at Thu Feb 26 00:42:29 2015, MaxMem= 1073741824 cpu:       1.0
 (Enter /apps/gaussian/g09_c01/g09/l303.exe)
 DipDrv:  MaxL=1.
 Leave Link  303 at Thu Feb 26 00:42:29 2015, MaxMem= 1073741824 cpu:       0.1
 (Enter /apps/gaussian/g09_c01/g09/l401.exe)
 Harris functional with IExCor=20419 diagonalized for initial guess.
 ExpMin= 1.61D-01 ExpMax= 4.17D+03 ExpMxC= 6.27D+02 IAcc=3 IRadAn=         5 AccDes= 0.00D+00
 HarFok:  IExCor=20419 AccDes= 0.00D+00 IRadAn=         5 IDoV= 1
 ScaDFX=  1.000000  1.000000  1.000000  1.000000
 FoFCou: FMM=F IPFlag=           0 FMFlag=      100000 FMFlg1=           0
         NFxFlg=           0 DoJE=T BraDBF=F KetDBF=T FulRan=T
         Omega=  0.000000  0.000000  1.000000  0.000000  0.000000 ICntrl=     500 IOpCl=  0
         NMat0=    1 NMatS0=    1 NMatT0=    0 NMatD0=    1 NMtDS0=    0 NMtDT0=    0
         I1Cent=           4 NGrid=           0.
 Petite list used in FoFCou.
 Harris En= -92.2058206387002    
 Initial guess orbital symmetries:
       Occupied  (A) (A) (A) (A) (E) (E) (A) (E) (E)
       Virtual   (A) (A) (E) (E) (E) (E) (A) (A) (E) (E) (E) (E)
                 (A) (A) (E) (E) (E) (E) (A) (A) (E) (E) (A) (A)
                 (E) (E) (E) (E) (E) (E) (A) (A) (A)
 The electronic state of the initial guess is 1-A.
 Leave Link  401 at Thu Feb 26 00:42:30 2015, MaxMem= 1073741824 cpu:       1.4
 (Enter /apps/gaussian/g09_c01/g09/l502.exe)
 Closed shell SCF:
 Requested convergence on RMS density matrix=1.00D-08 within 128 cycles.
 Requested convergence on MAX density matrix=1.00D-06.
 Requested convergence on             energy=1.00D-06.
 No special actions if energy rises.
 Using DIIS extrapolation, IDIIS=  1040.
 Integral symmetry usage will be decided dynamically.
       177426 words used for storage of precomputed grid.
 IEnd=      201570 IEndB=      201570 NGot=  1073741824 MDV=  1073558701
 LenX=  1073558701 LenY=  1073556496
 Fock matrices will be formed incrementally for  20 cycles.
 Integral accuracy reduced to 1.0D-05 until final iterations.

 Cycle   1  Pass 0  IDiag  1:
 FoFJK:  IHMeth= 1 ICntrl=     0 DoSepK=T KAlg= 1 I1Cent= 0 FoldK=F
 FoFCou: FMM=F IPFlag=           0 FMFlag=      100000 FMFlg1=           0
         NFxFlg=           0 DoJE=T BraDBF=F KetDBF=F FulRan=T
         Omega=  0.000000  0.000000  1.000000  0.000000  0.000000 ICntrl=     500 IOpCl=  0
         NMat0=    1 NMatS0=    1 NMatT0=    0 NMatD0=    1 NMtDS0=    0 NMtDT0=    0
         I1Cent=           0 NGrid=           0.
 Petite list used in FoFCou.
 E= -96.1217049746761    
 DIIS: error= 4.62D-02 at cycle   1 NSaved=   1.
 NSaved= 1 IEnMin= 1 EnMin= -96.1217049746761     IErMin= 1 ErrMin= 4.62D-02
 ErrMax= 4.62D-02 EMaxC= 1.00D-01 BMatC= 7.82D-02 BMatP= 7.82D-02
 IDIUse=3 WtCom= 5.38D-01 WtEn= 4.62D-01
 Coeff-Com:  0.100D+01
 Coeff-En:   0.100D+01
 Coeff:      0.100D+01
 Gap=     0.560 Goal=   None    Shift=    0.000
 GapD=    0.560 DampG=2.000 DampE=0.500 DampFc=1.0000 IDamp=-1.
 RMSDP=6.99D-03 MaxDP=7.62D-02              OVMax= 1.11D-01

 Cycle   2  Pass 0  IDiag  1:
 RMSU=  4.89D-03    CP:  1.02D+00
 FoFJK:  IHMeth= 1 ICntrl=     0 DoSepK=T KAlg= 1 I1Cent= 0 FoldK=F
 E= -96.1346780554381     Delta-E=       -0.012973080762 Rises=F Damp=F
 DIIS: error= 2.20D-02 at cycle   2 NSaved=   2.
 NSaved= 2 IEnMin= 2 EnMin= -96.1346780554381     IErMin= 2 ErrMin= 2.20D-02
 ErrMax= 2.20D-02 EMaxC= 1.00D-01 BMatC= 2.75D-02 BMatP= 7.82D-02
 IDIUse=3 WtCom= 7.80D-01 WtEn= 2.20D-01
 Coeff-Com:  0.338D+00 0.662D+00
 Coeff-En:   0.343D+00 0.657D+00
 Coeff:      0.339D+00 0.661D+00
 Gap=     0.563 Goal=   None    Shift=    0.000
 RMSDP=3.01D-03 MaxDP=5.20D-02 DE=-1.30D-02 OVMax= 5.42D-02

 Cycle   3  Pass 0  IDiag  1:
 RMSU=  1.45D-03    CP:  1.01D+00  6.86D-01
 FoFJK:  IHMeth= 1 ICntrl=     0 DoSepK=T KAlg= 1 I1Cent= 0 FoldK=F
 E= -96.1530910662189     Delta-E=       -0.018413010781 Rises=F Damp=F
 DIIS: error= 8.06D-03 at cycle   3 NSaved=   3.
 NSaved= 3 IEnMin= 3 EnMin= -96.1530910662189     IErMin= 3 ErrMin= 8.06D-03
 ErrMax= 8.06D-03 EMaxC= 1.00D-01 BMatC= 3.78D-03 BMatP= 2.75D-02
 IDIUse=3 WtCom= 9.19D-01 WtEn= 8.06D-02
 Coeff-Com:  0.466D-02 0.271D+00 0.724D+00
 Coeff-En:   0.000D+00 0.559D-01 0.944D+00
 Coeff:      0.428D-02 0.254D+00 0.742D+00
 Gap=     0.556 Goal=   None    Shift=    0.000
 RMSDP=9.30D-04 MaxDP=1.56D-02 DE=-1.84D-02 OVMax= 1.63D-02

 Cycle   4  Pass 0  IDiag  1:
 RMSU=  1.45D-04    CP:  1.02D+00  7.92D-01  7.46D-01
 FoFJK:  IHMeth= 1 ICntrl=     0 DoSepK=T KAlg= 1 I1Cent= 0 FoldK=F
 E= -96.1560453023805     Delta-E=       -0.002954236162 Rises=F Damp=F
 DIIS: error= 6.71D-04 at cycle   4 NSaved=   4.
 NSaved= 4 IEnMin= 4 EnMin= -96.1560453023805     IErMin= 4 ErrMin= 6.71D-04
 ErrMax= 6.71D-04 EMaxC= 1.00D-01 BMatC= 2.58D-05 BMatP= 3.78D-03
 IDIUse=3 WtCom= 9.93D-01 WtEn= 6.71D-03
 Coeff-Com: -0.253D-03 0.112D-01 0.101D+00 0.888D+00
 Coeff-En:   0.000D+00 0.000D+00 0.000D+00 0.100D+01
 Coeff:     -0.251D-03 0.111D-01 0.100D+00 0.889D+00
 Gap=     0.556 Goal=   None    Shift=    0.000
 RMSDP=7.50D-05 MaxDP=1.29D-03 DE=-2.95D-03 OVMax= 1.22D-03

 Cycle   5  Pass 0  IDiag  1:
 RMSU=  3.28D-05    CP:  1.02D+00  7.89D-01  7.73D-01  9.89D-01
 FoFJK:  IHMeth= 1 ICntrl=     0 DoSepK=T KAlg= 1 I1Cent= 0 FoldK=F
 E= -96.1560646917837     Delta-E=       -0.000019389403 Rises=F Damp=F
 DIIS: error= 1.20D-04 at cycle   5 NSaved=   5.
 NSaved= 5 IEnMin= 5 EnMin= -96.1560646917837     IErMin= 5 ErrMin= 1.20D-04
 ErrMax= 1.20D-04 EMaxC= 1.00D-01 BMatC= 6.33D-07 BMatP= 2.58D-05
 IDIUse=3 WtCom= 9.99D-01 WtEn= 1.20D-03
 Coeff-Com: -0.508D-03-0.667D-02 0.786D-02 0.297D+00 0.703D+00
 Coeff-En:   0.000D+00 0.000D+00 0.000D+00 0.000D+00 0.100D+01
 Coeff:     -0.507D-03-0.666D-02 0.785D-02 0.296D+00 0.703D+00
 Gap=     0.556 Goal=   None    Shift=    0.000
 RMSDP=1.80D-05 MaxDP=2.66D-04 DE=-1.94D-05 OVMax= 2.75D-04

 Cycle   6  Pass 0  IDiag  1:
 RMSU=  7.59D-06    CP:  1.02D+00  7.90D-01  7.75D-01  1.03D+00  8.16D-01
 FoFJK:  IHMeth= 1 ICntrl=     0 DoSepK=T KAlg= 1 I1Cent= 0 FoldK=F
 E= -96.1560652933529     Delta-E=       -0.000000601569 Rises=F Damp=F
 DIIS: error= 2.60D-05 at cycle   6 NSaved=   6.
 NSaved= 6 IEnMin= 6 EnMin= -96.1560652933529     IErMin= 6 ErrMin= 2.60D-05
 ErrMax= 2.60D-05 EMaxC= 1.00D-01 BMatC= 2.99D-08 BMatP= 6.33D-07
 IDIUse=1 WtCom= 1.00D+00 WtEn= 0.00D+00
 Coeff-Com: -0.503D-04-0.312D-02-0.771D-02-0.510D-02 0.161D+00 0.855D+00
 Coeff:     -0.503D-04-0.312D-02-0.771D-02-0.510D-02 0.161D+00 0.855D+00
 Gap=     0.556 Goal=   None    Shift=    0.000
 RMSDP=4.22D-06 MaxDP=4.14D-05 DE=-6.02D-07 OVMax= 6.09D-05

 Initial convergence to 1.0D-05 achieved.  Increase integral accuracy.
 Cycle   7  Pass 1  IDiag  1:
 FoFJK:  IHMeth= 1 ICntrl=     0 DoSepK=T KAlg= 1 I1Cent= 0 FoldK=F
 E= -96.1560660950964     Delta-E=       -0.000000801744 Rises=F Damp=F
 DIIS: error= 2.30D-06 at cycle   1 NSaved=   1.
 NSaved= 1 IEnMin= 1 EnMin= -96.1560660950964     IErMin= 1 ErrMin= 2.30D-06
 ErrMax= 2.30D-06 EMaxC= 1.00D-01 BMatC= 3.10D-10 BMatP= 3.10D-10
 IDIUse=1 WtCom= 1.00D+00 WtEn= 0.00D+00
 Coeff-Com:  0.100D+01
 Coeff:      0.100D+01
 Gap=     0.556 Goal=   None    Shift=    0.000
 RMSDP=4.22D-06 MaxDP=4.14D-05 DE=-8.02D-07 OVMax= 7.47D-06

 Cycle   8  Pass 1  IDiag  1:
 RMSU=  4.20D-07    CP:  1.00D+00
 FoFJK:  IHMeth= 1 ICntrl=     0 DoSepK=T KAlg= 1 I1Cent= 0 FoldK=F
 E= -96.1560660954566     Delta-E=       -0.000000000360 Rises=F Damp=F
 DIIS: error= 1.72D-06 at cycle   2 NSaved=   2.
 NSaved= 2 IEnMin= 2 EnMin= -96.1560660954566     IErMin= 2 ErrMin= 1.72D-06
 ErrMax= 1.72D-06 EMaxC= 1.00D-01 BMatC= 9.29D-11 BMatP= 3.10D-10
 IDIUse=1 WtCom= 1.00D+00 WtEn= 0.00D+00
 Coeff-Com:  0.320D+00 0.680D+00
 Coeff:      0.320D+00 0.680D+00
 Gap=     0.556 Goal=   None    Shift=    0.000
 RMSDP=2.03D-07 MaxDP=2.61D-06 DE=-3.60D-10 OVMax= 3.61D-06

 Cycle   9  Pass 1  IDiag  1:
 RMSU=  1.40D-07    CP:  1.00D+00  9.35D-01
 FoFJK:  IHMeth= 1 ICntrl=     0 DoSepK=T KAlg= 1 I1Cent= 0 FoldK=F
 E= -96.1560660955455     Delta-E=       -0.000000000089 Rises=F Damp=F
 DIIS: error= 4.28D-07 at cycle   3 NSaved=   3.
 NSaved= 3 IEnMin= 3 EnMin= -96.1560660955455     IErMin= 3 ErrMin= 4.28D-07
 ErrMax= 4.28D-07 EMaxC= 1.00D-01 BMatC= 6.31D-12 BMatP= 9.29D-11
 IDIUse=1 WtCom= 1.00D+00 WtEn= 0.00D+00
 Coeff-Com: -0.478D-01 0.132D+00 0.916D+00
 Coeff:     -0.478D-01 0.132D+00 0.916D+00
 Gap=     0.556 Goal=   None    Shift=    0.000
 RMSDP=6.91D-08 MaxDP=9.11D-07 DE=-8.89D-11 OVMax= 9.94D-07

 Cycle  10  Pass 1  IDiag  1:
 RMSU=  1.96D-08    CP:  1.00D+00  1.04D+00  9.73D-01
 FoFJK:  IHMeth= 1 ICntrl=     0 DoSepK=T KAlg= 1 I1Cent= 0 FoldK=F
 E= -96.1560660955527     Delta-E=       -0.000000000007 Rises=F Damp=F
 DIIS: error= 9.45D-08 at cycle   4 NSaved=   4.
 NSaved= 4 IEnMin= 4 EnMin= -96.1560660955527     IErMin= 4 ErrMin= 9.45D-08
 ErrMax= 9.45D-08 EMaxC= 1.00D-01 BMatC= 2.10D-13 BMatP= 6.31D-12
 IDIUse=1 WtCom= 1.00D+00 WtEn= 0.00D+00
 Coeff-Com: -0.275D-01-0.137D-01 0.179D+00 0.862D+00
 Coeff:     -0.275D-01-0.137D-01 0.179D+00 0.862D+00
 Gap=     0.556 Goal=   None    Shift=    0.000
 RMSDP=1.47D-08 MaxDP=1.94D-07 DE=-7.25D-12 OVMax= 3.21D-07

 Cycle  11  Pass 1  IDiag  1:
 RMSU=  3.69D-09    CP:  1.00D+00  1.05D+00  1.03D+00  8.92D-01
 FoFJK:  IHMeth= 1 ICntrl=     0 DoSepK=T KAlg= 1 I1Cent= 0 FoldK=F
 E= -96.1560660955529     Delta-E=        0.000000000000 Rises=F Damp=F
 DIIS: error= 1.98D-08 at cycle   5 NSaved=   5.
 NSaved= 5 IEnMin= 5 EnMin= -96.1560660955529     IErMin= 5 ErrMin= 1.98D-08
 ErrMax= 1.98D-08 EMaxC= 1.00D-01 BMatC= 2.32D-14 BMatP= 2.10D-13
 IDIUse=1 WtCom= 1.00D+00 WtEn= 0.00D+00
 Coeff-Com: -0.128D-01-0.893D-02 0.703D-01 0.408D+00 0.543D+00
 Coeff:     -0.128D-01-0.893D-02 0.703D-01 0.408D+00 0.543D+00
 Gap=     0.556 Goal=   None    Shift=    0.000
 RMSDP=2.19D-09 MaxDP=3.79D-08 DE=-2.27D-13 OVMax= 3.73D-08

 SCF Done:  E(RCAM-B3LYP) =  -96.1560660956     A.U. after   11 cycles
             Convg  =    0.2187D-08             -V/T =  2.0103
 KE= 9.517260774980D+01 PE=-3.126693347461D+02 EE= 7.375605084136D+01
 Leave Link  502 at Thu Feb 26 00:42:32 2015, MaxMem= 1073741824 cpu:      19.2
 (Enter /apps/gaussian/g09_c01/g09/l801.exe)
 Range of M.O.s used for correlation:     1    42
 NBasis=    42 NAE=     9 NBE=     9 NFC=     0 NFV=     0
 NROrb=     42 NOA=     9 NOB=     9 NVA=    33 NVB=    33
 Leave Link  801 at Thu Feb 26 00:42:32 2015, MaxMem= 1073741824 cpu:       0.1
 (Enter /apps/gaussian/g09_c01/g09/l1002.exe)
 Minotr:  Closed shell wavefunction.
          Direct CPHF calculation.
          Differentiating once with respect to electric field.
                with respect to dipole field.
          Electric field/nuclear overlap derivatives assumed to be zero.
          Using symmetry in CPHF.
          Requested convergence is 1.0D-08 RMS, and 1.0D-07 maximum.
          Secondary convergence is 1.0D-12 RMS, and 1.0D-12 maximum.
          NewPWx=F KeepS1=T KeepF1=T KeepIn=T MapXYZ=F SortEE=F KeepMc=T.
          MDV=    1073741756 using IRadAn=       1.
 Generate precomputed XC quadrature information.
          Solving linear equations simultaneously, MaxMat=       0.
          There are     3 degrees of freedom in the 1st order CPHF.  IDoFFX=0.
      3 vectors produced by pass  0 Test12= 9.90D-15 3.33D-08 XBig12= 5.55D+00 1.44D+00.
 AX will form     3 AO Fock derivatives at one time.
 FoFJK:  IHMeth= 1 ICntrl=     0 DoSepK=T KAlg= 1 I1Cent= 0 FoldK=F
 FoFCou: FMM=F IPFlag=           0 FMFlag=      100000 FMFlg1=           0
         NFxFlg=           0 DoJE=T BraDBF=F KetDBF=F FulRan=T
         Omega=  0.000000  0.000000  1.000000  0.000000  0.000000 ICntrl=     500 IOpCl=  0
         NMat0=    3 NMatS0=    3 NMatT0=    0 NMatD0=    3 NMtDS0=    0 NMtDT0=    0
         I1Cent=           0 NGrid=           0.
 Symmetry not used in FoFCou.
      3 vectors produced by pass  1 Test12= 9.90D-15 3.33D-08 XBig12= 2.06D-01 1.86D-01.
 FoFJK:  IHMeth= 1 ICntrl=     0 DoSepK=T KAlg= 1 I1Cent= 0 FoldK=F
      3 vectors produced by pass  2 Test12= 9.90D-15 3.33D-08 XBig12= 3.99D-02 6.37D-02.
 FoFJK:  IHMeth= 1 ICntrl=     0 DoSepK=T KAlg= 1 I1Cent= 0 FoldK=F
      3 vectors produced by pass  3 Test12= 9.90D-15 3.33D-08 XBig12= 1.80D-03 1.50D-02.
 FoFJK:  IHMeth= 1 ICntrl=     0 DoSepK=T KAlg= 1 I1Cent= 0 FoldK=F
      3 vectors produced by pass  4 Test12= 9.90D-15 3.33D-08 XBig12= 3.42D-04 5.68D-03.
 FoFJK:  IHMeth= 1 ICntrl=     0 DoSepK=T KAlg= 1 I1Cent= 0 FoldK=F
      3 vectors produced by pass  5 Test12= 9.90D-15 3.33D-08 XBig12= 3.89D-06 4.97D-04.
 FoFJK:  IHMeth= 1 ICntrl=     0 DoSepK=T KAlg= 1 I1Cent= 0 FoldK=F
      3 vectors produced by pass  6 Test12= 9.90D-15 3.33D-08 XBig12= 3.28D-08 9.13D-05.
 FoFJK:  IHMeth= 1 ICntrl=     0 DoSepK=T KAlg= 1 I1Cent= 0 FoldK=F
      3 vectors produced by pass  7 Test12= 9.90D-15 3.33D-08 XBig12= 5.89D-10 7.68D-06.
 FoFJK:  IHMeth= 1 ICntrl=     0 DoSepK=T KAlg= 1 I1Cent= 0 FoldK=F
      1 vectors produced by pass  8 Test12= 9.90D-15 3.33D-08 XBig12= 8.59D-12 1.08D-06.
 FoFJK:  IHMeth= 1 ICntrl=     0 DoSepK=T KAlg= 1 I1Cent= 0 FoldK=F
      1 vectors produced by pass  9 Test12= 9.90D-15 3.33D-08 XBig12= 2.73D-14 6.41D-08.
 FoFJK:  IHMeth= 1 ICntrl=     0 DoSepK=T KAlg= 1 I1Cent= 0 FoldK=F
 Inverted reduced A of dimension    26 with in-core refinement.
 End of Minotr Frequency-dependent properties file   721 does not exist.
 End of Minotr Frequency-dependent properties file   722 does not exist.
 Leave Link 1002 at Thu Feb 26 00:42:36 2015, MaxMem= 1073741824 cpu:      26.1
 (Enter /apps/gaussian/g09_c01/g09/l1101.exe)
 Using compressed storage, NAtomX=     8.
 Will process   9 centers per pass.
 Leave Link 1101 at Thu Feb 26 00:42:36 2015, MaxMem= 1073741824 cpu:       0.9
 (Enter /apps/gaussian/g09_c01/g09/l1102.exe)
 Symmetrizing basis deriv contribution to polar:
 IMax=3 JMax=2 DiffMx= 0.00D+00
 Leave Link 1102 at Thu Feb 26 00:42:37 2015, MaxMem= 1073741824 cpu:       0.1
 (Enter /apps/gaussian/g09_c01/g09/l1110.exe)
 Forming Gx(P) for the SCF density, NAtomX=     8.
 Integral derivatives from FoFDir/FoFCou, PRISM(SPDF).
 Do as many integral derivatives as possible in FoFDir.
 G2DrvN: MDV=    1073741656.
 G2DrvN: will do     9 centers at a time, making    1 passes doing MaxLOS=2.
 Calling FoFCou, ICntrl=  3107 FMM=F I1Cent=   0 AccDes= 0.00D+00.
 FoFJK:  IHMeth= 1 ICntrl=  3107 DoSepK=T KAlg= 1 I1Cent= 0 FoldK=F
 FoFCou: FMM=F IPFlag=           0 FMFlag=      100000 FMFlg1=           0
         NFxFlg=           0 DoJE=F BraDBF=F KetDBF=F FulRan=T
         Omega=  0.000000  0.000000  1.000000  0.000000  0.000000 ICntrl=    3507 IOpCl=  0
         NMat0=    1 NMatS0=    1 NMatT0=    0 NMatD0=    4 NMtDS0=    3 NMtDT0=    0
         I1Cent=           0 NGrid=           0.
 Petite list used in FoFCou.
 FoFDir/FoFCou used for L=0 through L=2.
 End of G2Drv Frequency-dependent properties file   721 does not exist.
 End of G2Drv Frequency-dependent properties file   722 does not exist.
 Leave Link 1110 at Thu Feb 26 00:42:38 2015, MaxMem= 1073741824 cpu:      13.0
 (Enter /apps/gaussian/g09_c01/g09/l1002.exe)
 Minotr:  Closed shell wavefunction.
          IDoAtm=11111111
          Direct CPHF calculation.
          Differentiating once with respect to electric field.
                with respect to dipole field.
          Differentiating once with respect to nuclear coordinates.
          Using symmetry in CPHF.
          Requested convergence is 1.0D-08 RMS, and 1.0D-07 maximum.
          Secondary convergence is 1.0D-12 RMS, and 1.0D-12 maximum.
          NewPWx=T KeepS1=F KeepF1=F KeepIn=T MapXYZ=F SortEE=F KeepMc=T.
          MDV=    1073741740 using IRadAn=       1.
 Generate precomputed XC quadrature information.
          Solving linear equations simultaneously, MaxMat=       0.
 FoFJK:  IHMeth= 1 ICntrl=     0 DoSepK=T KAlg= 1 I1Cent= 0 FoldK=F
 FoFCou: FMM=F IPFlag=           0 FMFlag=      100000 FMFlg1=           0
         NFxFlg=           0 DoJE=F BraDBF=F KetDBF=F FulRan=T
         Omega=  0.000000  0.000000  1.000000  0.000000  0.000000 ICntrl=     500 IOpCl=  0
         NMat0=   15 NMatS0=   15 NMatT0=    0 NMatD0=   15 NMtDS0=    0 NMtDT0=    0
         I1Cent=           0 NGrid=           0.
 Integrals replicated using symmetry in FoFCou.
          There are    15 degrees of freedom in the 1st order CPHF.  IDoFFX=4.
 Will reuse    3 saved solutions.
     12 vectors produced by pass  0 Test12= 1.98D-15 6.67D-09 XBig12= 5.60D-02 9.80D-02.
 AX will form    12 AO Fock derivatives at one time.
 FoFJK:  IHMeth= 1 ICntrl=     0 DoSepK=T KAlg= 1 I1Cent= 0 FoldK=F
     12 vectors produced by pass  1 Test12= 1.98D-15 6.67D-09 XBig12= 6.62D-03 2.49D-02.
 FoFJK:  IHMeth= 1 ICntrl=     0 DoSepK=T KAlg= 1 I1Cent= 0 FoldK=F
     12 vectors produced by pass  2 Test12= 1.98D-15 6.67D-09 XBig12= 2.02D-05 1.46D-03.
 FoFJK:  IHMeth= 1 ICntrl=     0 DoSepK=T KAlg= 1 I1Cent= 0 FoldK=F
     12 vectors produced by pass  3 Test12= 1.98D-15 6.67D-09 XBig12= 5.76D-08 7.87D-05.
 FoFJK:  IHMeth= 1 ICntrl=     0 DoSepK=T KAlg= 1 I1Cent= 0 FoldK=F
     12 vectors produced by pass  4 Test12= 1.98D-15 6.67D-09 XBig12= 1.72D-10 5.57D-06.
 FoFJK:  IHMeth= 1 ICntrl=     0 DoSepK=T KAlg= 1 I1Cent= 0 FoldK=F
     12 vectors produced by pass  5 Test12= 1.98D-15 6.67D-09 XBig12= 4.16D-13 1.48D-07.
 FoFJK:  IHMeth= 1 ICntrl=     0 DoSepK=T KAlg= 1 I1Cent= 0 FoldK=F
      1 vectors produced by pass  6 Test12= 1.98D-15 6.67D-09 XBig12= 9.42D-16 6.94D-09.
 FoFJK:  IHMeth= 1 ICntrl=     0 DoSepK=T KAlg= 1 I1Cent= 0 FoldK=F
 Inverted reduced A of dimension    73 with in-core refinement.
 FullF1:  Do perturbations    1 to    15.
 FoFJK:  IHMeth= 1 ICntrl=     0 DoSepK=T KAlg= 1 I1Cent= 0 FoldK=F
 Isotropic polarizability for W=    0.000000       16.98 Bohr**3.
 FoFJK:  IHMeth= 1 ICntrl=     0 DoSepK=T KAlg= 1 I1Cent= 0 FoldK=F
 FullF1:  Do perturbations    1 to     6.
 FoFJK:  IHMeth= 1 ICntrl=     0 DoSepK=T KAlg= 1 I1Cent= 0 FoldK=F
 End of Minotr Frequency-dependent properties file   721 does not exist.
 End of Minotr Frequency-dependent properties file   722 does not exist.
 Leave Link 1002 at Thu Feb 26 00:42:41 2015, MaxMem= 1073741824 cpu:      23.4
 (Enter /apps/gaussian/g09_c01/g09/l601.exe)
 Copying SCF densities to generalized density rwf, IOpCl= 0 IROHF=0.

 **********************************************************************

            Population analysis using the SCF density.

 **********************************************************************

 Orbital symmetries:
       Occupied  (A) (A) (A) (A) (E) (E) (A) (E) (E)
       Virtual   (A) (E) (E) (A) (A) (E) (E) (A) (E) (E) (E) (E)
                 (A) (E) (E) (A) (E) (E) (A) (A) (E) (E) (A) (A)
                 (E) (E) (E) (E) (E) (E) (A) (A) (A)
 The electronic state is 1-A.
 Alpha  occ. eigenvalues --  -14.76004 -10.52410  -1.30526  -1.01454  -0.87757
 Alpha  occ. eigenvalues --   -0.87757  -0.77380  -0.69306  -0.69306
 Alpha virt. eigenvalues --   -0.13714  -0.06059  -0.06059  -0.03323   0.00385
 Alpha virt. eigenvalues --    0.01578   0.01578   0.35170   0.36558   0.36558
 Alpha virt. eigenvalues --    0.51918   0.51918   0.52302   0.66610   0.66610
 Alpha virt. eigenvalues --    0.68108   0.75283   0.75283   0.79669   0.91140
 Alpha virt. eigenvalues --    1.26968   1.26968   1.37185   1.74346   1.80980
 Alpha virt. eigenvalues --    1.80980   2.09751   2.09751   2.14452   2.14452
 Alpha virt. eigenvalues --    2.39547   3.55701   4.06861
          Condensed to atoms (all electrons):
              1          2          3          4          5          6
     1  C    5.083808   0.385018   0.385018   0.385018   0.191957  -0.017510
     2  H    0.385018   0.423477  -0.018790  -0.018790  -0.028240   0.002542
     3  H    0.385018  -0.018790   0.423477  -0.018790  -0.028240  -0.002094
     4  H    0.385018  -0.018790  -0.018790   0.423477  -0.028240  -0.002096
     5  N    0.191957  -0.028240  -0.028240  -0.028240   6.705622   0.307414
     6  H   -0.017510   0.002542  -0.002094  -0.002096   0.307414   0.292681
     7  H   -0.017510  -0.002094  -0.002096   0.002542   0.307414  -0.013212
     8  H   -0.017510  -0.002096   0.002542  -0.002094   0.307414  -0.013212
              7          8
     1  C   -0.017510  -0.017510
     2  H   -0.002094  -0.002096
     3  H   -0.002096   0.002542
     4  H    0.002542  -0.002094
     5  N    0.307414   0.307414
     6  H   -0.013212  -0.013212
     7  H    0.292681  -0.013212
     8  H   -0.013212   0.292681
 Mulliken atomic charges:
              1
     1  C   -0.378287
     2  H    0.258974
     3  H    0.258974
     4  H    0.258974
     5  N   -0.735100
     6  H    0.445488
     7  H    0.445488
     8  H    0.445488
 Sum of Mulliken atomic charges =   1.00000
 Mulliken charges with hydrogens summed into heavy atoms:
              1
     1  C    0.398635
     5  N    0.601365
 Sum of Mulliken charges with hydrogens summed into heavy atoms =   1.00000
 APT atomic charges:
              1
     1  C    0.240268
     2  H    0.080876
     3  H    0.080876
     4  H    0.080876
     5  N   -0.316893
     6  H    0.277999
     7  H    0.277999
     8  H    0.277999
 Sum of APT charges=   1.00000
 APT Atomic charges with hydrogens summed into heavy atoms:
              1
     1  C    0.482896
     2  H    0.000000
     3  H    0.000000
     4  H    0.000000
     5  N    0.517104
     6  H    0.000000
     7  H    0.000000
     8  H    0.000000
 Sum of APT charges=   1.00000
 Electronic spatial extent (au):  <R**2>=             94.9296
 Charge=              1.0000 electrons
 Dipole moment (field-independent basis, Debye):
    X=              0.0000    Y=              0.0000    Z=              2.2967  Tot=              2.2967
 Quadrupole moment (field-independent basis, Debye-Ang):
   XX=            -10.2023   YY=            -10.2023   ZZ=             -6.9194
   XY=              0.0000   XZ=              0.0000   YZ=              0.0000
 Traceless Quadrupole moment (field-independent basis, Debye-Ang):
   XX=             -1.0943   YY=             -1.0943   ZZ=              2.1886
   XY=              0.0000   XZ=              0.0000   YZ=              0.0000
 Octapole moment (field-independent basis, Debye-Ang**2):
  XXX=             -0.3599  YYY=             -0.1033  ZZZ=              6.1250  XYY=              0.3599
  XXY=              0.1033  XXZ=              2.6519  XZZ=              0.0000  YZZ=              0.0000
  YYZ=              2.6519  XYZ=              0.0000
 Hexadecapole moment (field-independent basis, Debye-Ang**3):
 XXXX=            -17.7900 YYYY=            -17.7900 ZZZZ=            -62.8428 XXXY=              0.0000
 XXXZ=             -2.6626 YYYX=              0.0000 YYYZ=             -0.7610 ZZZX=              0.0000
 ZZZY=              0.0000 XXYY=             -5.9300 XXZZ=            -10.9379 YYZZ=            -10.9379
 XXYZ=              0.7610 YYXZ=              2.6626 ZZXY=              0.0000
 N-N= 4.758461005939D+01 E-N=-3.126693338105D+02  KE= 9.517260774980D+01
  Exact polarizability:  16.459   0.000  16.459   0.000   0.000  18.036
 Approx polarizability:  17.857   0.000  17.857   0.000   0.000  17.655
 No NMR shielding tensors so no spin-rotation constants.
 Leave Link  601 at Thu Feb 26 00:42:42 2015, MaxMem= 1073741824 cpu:       0.9
 (Enter /apps/gaussian/g09_c01/g09/l701.exe)
 Compute integral second derivatives.
 ... and contract with generalized density number  0.
 Leave Link  701 at Thu Feb 26 00:42:42 2015, MaxMem= 1073741824 cpu:       1.2
 (Enter /apps/gaussian/g09_c01/g09/l702.exe)
 L702 exits ... SP integral derivatives will be done elsewhere.
 Leave Link  702 at Thu Feb 26 00:42:42 2015, MaxMem= 1073741824 cpu:       0.1
 (Enter /apps/gaussian/g09_c01/g09/l703.exe)
 Compute integral second derivatives, UseDBF=F ICtDFT=           0.
 Integral derivatives from FoFDir, PRISM(SPDF).
 Calling FoFJK, ICntrl=    100127 FMM=F ISym2X=1 I1Cent= 0 IOpClX= 0 NMat=1 NMatS=1 NMatT=0.
 FoFJK:  IHMeth= 1 ICntrl=100127 DoSepK=T KAlg= 1 I1Cent= 0 FoldK=F
 FoFCou: FMM=F IPFlag=           0 FMFlag=      100000 FMFlg1=         800
         NFxFlg=           0 DoJE=F BraDBF=F KetDBF=F FulRan=T
         Omega=  0.000000  0.000000  1.000000  0.000000  0.000000 ICntrl=  100527 IOpCl=  0
         NMat0=    1 NMatS0=    1 NMatT0=    0 NMatD0=    1 NMtDS0=    0 NMtDT0=    0
         I1Cent=           0 NGrid=           0.
 Petite list used in FoFCou.
 Leave Link  703 at Thu Feb 26 00:42:44 2015, MaxMem= 1073741824 cpu:      12.8
 (Enter /apps/gaussian/g09_c01/g09/l716.exe)
 Dipole        = 4.05925293D-16 1.59594560D-15 9.03594073D-01
 Polarizability= 1.64588375D+01 6.60662990D-07 1.64588223D+01
                 2.06143994D-06 1.75143004D-05 1.80358233D+01
 HyperPolar    = 5.14133427D+00-1.46407663D+00-5.14095034D+00
                 1.46431114D+00-2.89607028D+00 1.75132946D-04
                -2.89608650D+00 7.30745539D-05 6.23876994D-05
                -1.34748046D+00
 ***** Axes restored to original set *****
 -------------------------------------------------------------------
 Center     Atomic                   Forces (Hartrees/Bohr)
 Number     Number              X              Y              Z
 -------------------------------------------------------------------
      1        6           0.000000000    0.000000000    0.003636381
      2        1           0.000059193    0.000640508    0.000164353
      3        1           0.000525100   -0.000371516    0.000164353
      4        1          -0.000584293   -0.000268992    0.000164353
      5        7           0.000000000    0.000000000   -0.002465012
      6        1          -0.000067245   -0.000717592   -0.000554810
      7        1           0.000655075    0.000300560   -0.000554810
      8        1          -0.000587830    0.000417032   -0.000554810
 -------------------------------------------------------------------
 Cartesian Forces:  Max     0.003636381 RMS     0.000981149
 Force constants in Cartesian coordinates: 
                1             2             3             4             5 
      1  0.653953D+00
      2  0.000000D+00  0.653953D+00
      3  0.000000D+00  0.000000D+00  0.415701D+00
      4 -0.562887D-01 -0.247542D-01 -0.796989D-02  0.507146D-01
      5 -0.247547D-01 -0.320184D+00 -0.856784D-01  0.263331D-01  0.331438D+00
      6 -0.660701D-02 -0.710193D-01 -0.740962D-01  0.813603D-02  0.874587D-01
      7 -0.232772D+00  0.126648D+00 -0.702148D-01  0.510538D-02 -0.328220D-02
      8  0.126647D+00 -0.143701D+00  0.497414D-01  0.236110D-01 -0.123345D-01
      9 -0.582010D-01  0.412314D-01 -0.740962D-01  0.965234D-02 -0.435646D-02
     10 -0.275648D+00 -0.101893D+00  0.781846D-01  0.828106D-03  0.812713D-03
     11 -0.101893D+00 -0.100825D+00  0.359371D-01 -0.260805D-01 -0.805721D-02
     12  0.648080D-01  0.297878D-01 -0.740962D-01 -0.102900D-01 -0.250187D-02
     13 -0.100848D+00 -0.187487D-05  0.000000D+00 -0.904814D-03  0.791789D-03
     14  0.205541D-05 -0.100848D+00  0.000000D+00  0.791006D-03  0.753373D-02
     15  0.000000D+00  0.000000D+00 -0.160144D+00  0.392967D-03  0.423224D-02
     16  0.222459D-03  0.685397D-03 -0.184159D-03  0.416372D-03  0.435538D-04
     17  0.684527D-03  0.751397D-02 -0.198306D-02  0.435420D-04  0.880206D-03
     18 -0.309150D-02 -0.332086D-01 -0.110893D-01  0.198905D-03  0.214092D-02
     19  0.628432D-02  0.281521D-02  0.180939D-02  0.150825D-03  0.236723D-03
     20  0.281440D-02  0.145211D-02  0.831990D-03  0.740103D-03  0.275543D-03
     21  0.303052D-01  0.139270D-01 -0.110893D-01  0.498770D-03 -0.699535D-03
     22  0.509785D-02 -0.349943D-02 -0.162527D-02 -0.216964D-04 -0.180999D-03
     23 -0.350021D-02  0.263857D-02  0.115096D-02 -0.684024D-03  0.448943D-03
     24 -0.272138D-01  0.192816D-01 -0.110892D-01 -0.619118D-03 -0.595681D-03
                6             7             8             9            10 
      6  0.885763D-01
      7  0.297832D-02  0.238452D+00
      8  0.101623D-01 -0.134723D+00  0.143700D+00
      9  0.537776D-02  0.716735D-01 -0.507754D-01  0.885763D-01
     10 -0.105336D-02 -0.167771D-01 -0.109771D-01  0.731169D-02  0.284062D+00
     11  0.105374D-01  0.159161D-01  0.954804D-02 -0.766047D-02  0.108390D+00
     12  0.537776D-02 -0.859898D-02 -0.618094D-02  0.537776D-02 -0.798095D-01
     13 -0.346041D-02  0.473875D-02 -0.404932D-02 -0.304896D-01  0.610960D-02
     14 -0.372043D-01 -0.405015D-02  0.189023D-02  0.215989D-01  0.325789D-02
     15 -0.206411D-01  0.346875D-02 -0.245651D-02 -0.206411D-01 -0.386190D-02
     16  0.180097D-03 -0.178615D-03 -0.549901D-03 -0.787835D-03 -0.432828D-04
     17  0.193079D-02 -0.465207D-04  0.604983D-03  0.508469D-03  0.168537D-03
     18 -0.689341D-02 -0.855200D-03 -0.821802D-04  0.114897D-02  0.825434D-03
     19 -0.464297D-04  0.705849D-03  0.263975D-03 -0.741140D-03  0.801961D-03
     20 -0.936520D-03 -0.239049D-03 -0.278603D-03  0.574843D-03  0.179066D-03
     21  0.114897D-02 -0.206316D-03  0.834012D-03  0.114989D-02 -0.195355D-02
     22 -0.127258D-03  0.726534D-03 -0.222614D-03  0.158207D-02  0.667342D-03
     23 -0.929268D-03 -0.222626D-03  0.570044D-03 -0.112137D-02  0.614876D-04
     24  0.114989D-02  0.175464D-02 -0.124272D-02 -0.689341D-02  0.356430D-03
               11            12            13            14            15 
     11  0.980902D-01
     12 -0.366834D-01  0.885763D-01
     13  0.325873D-02  0.339500D-01  0.742746D+00
     14  0.519451D-03  0.156053D-01  0.000000D+00  0.742746D+00
     15 -0.177588D-02 -0.206410D-01  0.000000D+00  0.000000D+00  0.537503D+00
     16  0.671561D-03  0.868398D-03 -0.711946D-01 -0.274438D-01 -0.102969D-01
     17  0.470530D-03  0.354425D-03 -0.274432D-01 -0.363366D+00 -0.110574D+00
     18 -0.238332D-03  0.114989D-02 -0.110778D-01 -0.118964D+00 -0.105145D+00
     19  0.179078D-03 -0.176217D-02 -0.314090D+00 -0.112793D+00  0.100909D+00
     20  0.494617D-03 -0.809429D-03 -0.112792D+00 -0.120471D+00  0.463698D-01
     21 -0.898205D-03 -0.689341D-02  0.108565D+00  0.498883D-01 -0.105145D+00
     22 -0.441893D-03  0.834265D-03 -0.266557D+00  0.140236D+00 -0.906116D-01
     23 -0.240974D-03  0.428050D-03  0.140236D+00 -0.168004D+00  0.642045D-01
     24  0.781715D-03  0.114897D-02 -0.974868D-01  0.690756D-01 -0.105145D+00
               16            17            18            19            20 
     16  0.635500D-01
     17  0.297916D-01  0.380717D+00
     18  0.112223D-01  0.120524D+00  0.107470D+00
     19  0.843901D-03  0.343753D-03 -0.100893D-02  0.327226D+00
     20 -0.330288D-01 -0.106402D-01  0.151374D-01  0.122442D+00  0.117041D+00
     21 -0.146157D-01 -0.406574D-02  0.667948D-02 -0.109988D+00 -0.505433D-01
     22  0.638384D-02 -0.354224D-02  0.378682D-02 -0.219222D-01  0.198847D-01
     23  0.298303D-01 -0.161801D-01  0.146904D-01 -0.134878D-01  0.121259D-01
     24  0.136138D-01 -0.669492D-02  0.667948D-02  0.108289D-01 -0.106247D-01
               21            22            23            24 
     21  0.107470D+00
     22 -0.126049D-01  0.275625D+00
     23 -0.844245D-02 -0.152233D+00  0.168642D+00
     24  0.667948D-02  0.987659D-01 -0.699809D-01  0.107470D+00
 Force constants in internal coordinates: 
                1             2             3             4             5 
      1  0.362080D+00
      2  0.169024D-02  0.362080D+00
      3  0.169025D-02  0.169023D-02  0.362080D+00
      4  0.302869D-02  0.302863D-02  0.302853D-02  0.269119D+00
      5 -0.130417D-02  0.296739D-03  0.296874D-03  0.501216D-02  0.428951D+00
      6  0.296755D-03  0.296870D-03 -0.130413D-02  0.501205D-02  0.180743D-02
      7  0.296859D-03 -0.130416D-02  0.296748D-03  0.501207D-02  0.180742D-02
      8  0.394701D-02  0.394737D-02 -0.123770D-02 -0.262938D-01 -0.654551D-04
      9  0.394736D-02 -0.123771D-02  0.394705D-02 -0.262938D-01 -0.648952D-04
     10 -0.379505D-03 -0.331049D-02 -0.331060D-02  0.276521D-01  0.240746D-02
     11 -0.123771D-02  0.394702D-02  0.394739D-02 -0.262938D-01  0.885151D-03
     12 -0.331054D-02 -0.379532D-03 -0.331052D-02  0.276521D-01 -0.160025D-02
     13 -0.331050D-02 -0.331053D-02 -0.379513D-03  0.276521D-01 -0.160100D-02
     14  0.787710D-03  0.369007D-04  0.363906D-04  0.134192D-01 -0.493376D-02
     15  0.368765D-04  0.363812D-04  0.787695D-03  0.134193D-01 -0.337130D-02
     16  0.363710D-04  0.787685D-03  0.369435D-04  0.134192D-01 -0.337136D-02
     17 -0.410048D-03 -0.105458D-03 -0.409772D-03 -0.144213D-01  0.625241D-02
     18 -0.409743D-03 -0.410050D-03 -0.105475D-03 -0.144213D-01  0.625428D-02
     19 -0.105456D-03 -0.409749D-03 -0.410077D-03 -0.144213D-01  0.416349D-04
     20  0.000000D+00 -0.258143D-02  0.258134D-02  0.000000D+00  0.118276D-05
     21  0.422972D-04 -0.266570D-02  0.262347D-02  0.000000D+00  0.228340D-02
     22 -0.419852D-04 -0.262355D-02  0.266558D-02  0.000000D+00 -0.228339D-02
     23  0.262347D-02  0.422890D-04 -0.266571D-02  0.000000D+00  0.382030D-03
     24  0.266559D-02 -0.419729D-04 -0.262358D-02  0.000000D+00  0.266425D-02
     25  0.258130D-02  0.000000D+00 -0.258146D-02  0.000000D+00 -0.190254D-02
     26 -0.262355D-02  0.266558D-02 -0.419570D-04  0.000000D+00 -0.379906D-03
     27 -0.258143D-02  0.258131D-02  0.000000D+00  0.000000D+00  0.190231D-02
     28 -0.266571D-02  0.262346D-02  0.422910D-04  0.000000D+00 -0.266448D-02
                6             7             8             9            10 
      6  0.428951D+00
      7  0.180741D-02  0.428951D+00
      8  0.885149D-03 -0.649022D-04  0.540757D-01
      9 -0.654583D-04  0.885150D-03  0.123963D-01  0.540757D-01
     10 -0.160027D-02 -0.160096D-02 -0.468296D-01 -0.468269D-01  0.135659D+00
     11 -0.649021D-04 -0.654611D-04  0.123963D-01  0.123963D-01  0.107140D-01
     12 -0.160096D-02  0.240746D-02 -0.468269D-01  0.107140D-01 -0.242161D-01
     13  0.240746D-02 -0.160027D-02  0.107140D-01 -0.468296D-01 -0.242161D-01
     14 -0.337139D-02 -0.337129D-02 -0.419892D-02 -0.419873D-02  0.175847D-01
     15 -0.493376D-02 -0.337138D-02  0.351145D-02 -0.419891D-02 -0.622238D-02
     16 -0.337127D-02 -0.493376D-02 -0.419872D-02  0.351144D-02 -0.622373D-02
     17  0.625429D-02  0.416342D-04  0.753226D-03  0.374474D-02 -0.492870D-02
     18  0.416360D-04  0.625241D-02  0.374474D-02  0.753087D-03 -0.492804D-02
     19  0.625241D-02  0.625429D-02  0.753089D-03  0.753230D-03  0.433441D-02
     20 -0.190254D-02  0.190231D-02 -0.620155D-02  0.620030D-02  0.141033D-05
     21  0.382014D-03 -0.266448D-02 -0.571213D-02  0.522149D-02  0.150185D-02
     22  0.266425D-02 -0.379914D-03 -0.522275D-02  0.571092D-02 -0.149895D-02
     23 -0.266447D-02  0.228342D-02  0.522150D-02  0.489520D-03  0.736529D-02
     24 -0.379917D-03 -0.228338D-02  0.571092D-02 -0.489281D-03  0.886573D-02
     25  0.190232D-02  0.118947D-05  0.620031D-02  0.000000D+00  0.586493D-02
     26 -0.228337D-02  0.266424D-02 -0.489286D-03 -0.522275D-02 -0.736561D-02
     27  0.118382D-05 -0.190255D-02  0.000000D+00 -0.620156D-02 -0.586517D-02
     28  0.228342D-02  0.382017D-03  0.489520D-03 -0.571213D-02 -0.886597D-02
               11            12            13            14            15 
     11  0.540757D-01
     12 -0.468295D-01  0.135659D+00
     13 -0.468269D-01 -0.242161D-01  0.135659D+00
     14  0.351144D-02 -0.622237D-02 -0.622374D-02  0.102745D+00
     15 -0.419872D-02 -0.622375D-02  0.175847D-01 -0.181170D-01  0.102745D+00
     16 -0.419892D-02  0.175847D-01 -0.622239D-02 -0.181170D-01 -0.181170D-01
     17  0.753088D-03  0.433441D-02 -0.492803D-02 -0.423353D-01 -0.423349D-01
     18  0.753231D-03 -0.492871D-02  0.433442D-02 -0.423349D-01  0.131924D-01
     19  0.374474D-02 -0.492804D-02 -0.492870D-02  0.131924D-01 -0.423353D-01
     20  0.000000D+00 -0.586517D-02  0.586494D-02  0.000000D+00 -0.256298D-02
     21  0.489515D-03 -0.886597D-02  0.736530D-02  0.400206D-02  0.143953D-02
     22 -0.489285D-03 -0.736562D-02  0.886573D-02 -0.400249D-02  0.544158D-02
     23 -0.571213D-02  0.150184D-02 -0.886597D-02  0.143953D-02 -0.544147D-02
     24 -0.522275D-02 -0.149896D-02 -0.736561D-02  0.544157D-02 -0.143896D-02
     25 -0.620155D-02  0.139578D-05 -0.586518D-02 -0.256298D-02  0.256309D-02
     26  0.571092D-02  0.886574D-02 -0.149895D-02 -0.143895D-02 -0.400250D-02
     27  0.620030D-02  0.586494D-02  0.140824D-05  0.256309D-02  0.000000D+00
     28  0.522150D-02  0.736529D-02  0.150184D-02 -0.544147D-02  0.400206D-02
               16            17            18            19            20 
     16  0.102745D+00
     17  0.131924D-01  0.566503D-01
     18 -0.423353D-01  0.100825D-01  0.566503D-01
     19 -0.423349D-01  0.100825D-01  0.100825D-01  0.566503D-01
     20  0.256308D-02 -0.767459D-02  0.767449D-02  0.000000D+00  0.150740D-01
     21 -0.544148D-02  0.654802D-02  0.563315D-03 -0.711146D-02  0.353187D-02
     22 -0.143896D-02 -0.563162D-03 -0.654812D-02  0.711115D-02  0.353190D-02
     23  0.400207D-02 -0.711146D-02  0.654802D-02  0.563310D-03  0.431892D-02
     24 -0.400249D-02  0.711115D-02 -0.563159D-03 -0.654812D-02 -0.722322D-02
     25  0.000000D+00  0.000000D+00 -0.767460D-02  0.767449D-02 -0.722319D-02
     26  0.544158D-02 -0.654812D-02  0.711115D-02 -0.563159D-03  0.431895D-02
     27 -0.256298D-02  0.767449D-02  0.000000D+00 -0.767459D-02 -0.722319D-02
     28  0.143954D-02  0.563306D-03 -0.711146D-02  0.654802D-02 -0.722315D-02
               21            22            23            24            25 
     21  0.156098D-01
     22  0.379982D-02  0.156099D-01
     23 -0.749111D-02 -0.775905D-02  0.156098D-01
     24  0.458687D-02 -0.749114D-02  0.379982D-02  0.156099D-01
     25 -0.722316D-02  0.431895D-02  0.353187D-02  0.353190D-02  0.150740D-01
     26 -0.775906D-02 -0.749114D-02  0.458687D-02 -0.749114D-02 -0.722322D-02
     27  0.431892D-02 -0.722322D-02 -0.722316D-02  0.431895D-02 -0.722320D-02
     28 -0.749111D-02  0.458687D-02 -0.749111D-02 -0.775906D-02  0.431892D-02
               26            27            28 
     26  0.156099D-01
     27  0.353190D-02  0.150740D-01
     28  0.379982D-02  0.353187D-02  0.156098D-01
 Leave Link  716 at Thu Feb 26 00:42:44 2015, MaxMem= 1073741824 cpu:       0.2
 (Enter /apps/gaussian/g09_c01/g09/l103.exe)

 GradGradGradGradGradGradGradGradGradGradGradGradGradGradGradGradGradGrad
 Berny optimization.
 Red2BG is reusing G-inverse.
 Internal  Forces:  Max     0.004129441 RMS     0.000866140
 Search for a local minimum.
 Step number   1 out of a maximum of   38
 All quantities printed in internal units (Hartrees-Bohrs-Radians)
 RMS Force = .86614D-03 SwitMx=.10000D-02 MixMth= 2
 Mixed Optimization -- En-DIIS/RFO-DIIS
 Second derivative matrix not updated -- analytic derivatives used.
 ITU=  0
     Eigenvalues ---    0.00188   0.04954   0.04954   0.05202   0.05202
     Eigenvalues ---    0.12819   0.13570   0.13570   0.13973   0.19958
     Eigenvalues ---    0.19958   0.30879   0.36068   0.36068   0.36600
     Eigenvalues ---    0.42750   0.42750   0.43386
 RFO step:  Lambda=-7.88885071D-05 EMin= 1.88288684D-03
 Linear search not attempted -- first point.
 Iteration  1 RMS(Cart)=  0.00397669 RMS(Int)=  0.00000515
 Iteration  2 RMS(Cart)=  0.00000535 RMS(Int)=  0.00000245
 Iteration  3 RMS(Cart)=  0.00000000 RMS(Int)=  0.00000245
 ClnCor:  largest displacement from symmetrization is 9.78D-09 for atom     3.
 Variable       Old X    -DE/DX   Delta X   Delta X   Delta X     New X
                                 (Linear)    (Quad)   (Total)
    R1        2.05946  -0.00066   0.00000  -0.00156  -0.00156   2.05790
    R2        2.05946  -0.00066   0.00000  -0.00156  -0.00156   2.05790
    R3        2.05946  -0.00066   0.00000  -0.00156  -0.00156   2.05790
    R4        2.86675  -0.00413   0.00000  -0.01686  -0.01686   2.84989
    R5        1.94289  -0.00087   0.00000  -0.00184  -0.00184   1.94105
    R6        1.94289  -0.00087   0.00000  -0.00184  -0.00184   1.94105
    R7        1.94289  -0.00087   0.00000  -0.00184  -0.00184   1.94105
    A1        1.93261  -0.00005   0.00000  -0.00289  -0.00290   1.92971
    A2        1.93261  -0.00005   0.00000  -0.00289  -0.00290   1.92971
    A3        1.88811   0.00005   0.00000   0.00304   0.00304   1.89115
    A4        1.93261  -0.00005   0.00000  -0.00289  -0.00290   1.92971
    A5        1.88811   0.00005   0.00000   0.00304   0.00304   1.89115
    A6        1.88811   0.00005   0.00000   0.00304   0.00304   1.89115
    A7        1.94749  -0.00023   0.00000  -0.00035  -0.00035   1.94714
    A8        1.94749  -0.00023   0.00000  -0.00035  -0.00035   1.94714
    A9        1.94749  -0.00023   0.00000  -0.00035  -0.00035   1.94714
   A10        1.87238   0.00024   0.00000   0.00037   0.00037   1.87275
   A11        1.87238   0.00024   0.00000   0.00037   0.00037   1.87275
   A12        1.87238   0.00024   0.00000   0.00037   0.00037   1.87275
    D1        3.14146   0.00000   0.00000   0.00013   0.00013   3.14159
    D2       -1.04733   0.00000   0.00000   0.00013   0.00013  -1.04720
    D3        1.04707   0.00000   0.00000   0.00013   0.00013   1.04720
    D4       -1.04733   0.00000   0.00000   0.00013   0.00013  -1.04720
    D5        1.04707   0.00000   0.00000   0.00013   0.00013   1.04720
    D6        3.14146   0.00000   0.00000   0.00013   0.00013   3.14159
    D7        1.04707   0.00000   0.00000   0.00013   0.00013   1.04720
    D8        3.14146   0.00000   0.00000   0.00013   0.00013   3.14159
    D9       -1.04733   0.00000   0.00000   0.00013   0.00013  -1.04720
         Item               Value     Threshold  Converged?
 Maximum Force            0.004129     0.000002     NO 
 RMS     Force            0.000866     0.000001     NO 
 Maximum Displacement     0.010962     0.000006     NO 
 RMS     Displacement     0.003981     0.000004     NO 
 Predicted change in Energy=-3.945828D-05
 GradGradGradGradGradGradGradGradGradGradGradGradGradGradGradGradGradGrad

 Leave Link  103 at Thu Feb 26 00:42:44 2015, MaxMem= 1073741824 cpu:       0.0
 (Enter /apps/gaussian/g09_c01/g09/l202.exe)
                          Input orientation:                          
 ---------------------------------------------------------------------
 Center     Atomic      Atomic             Coordinates (Angstroms)
 Number     Number       Type             X           Y           Z
 ---------------------------------------------------------------------
      1          6           0        0.000000    0.000000   -0.798654
      2          1           0       -0.095766   -1.029143   -1.141579
      3          1           0       -0.843381    0.597507   -1.141579
      4          1           0        0.939147    0.431636   -1.141579
      5          7           0        0.000000    0.000000    0.709441
      6          1           0        0.088512    0.951165    1.086949
      7          1           0       -0.867989   -0.398929    1.086949
      8          1           0        0.779477   -0.552236    1.086949
 ---------------------------------------------------------------------
                    Distance matrix (angstroms):
                    1          2          3          4          5
     1  C    0.000000
     2  H    1.088992   0.000000
     3  H    1.088992   1.790229   0.000000
     4  H    1.088992   1.790229   1.790229   0.000000
     5  N    1.508096   2.120043   2.120043   2.120043   0.000000
     6  H    2.113776   2.986957   2.441277   2.441275   1.027162
     7  H    2.113776   2.441277   2.441275   2.986957   1.027162
     8  H    2.113776   2.441275   2.986957   2.441277   1.027162
                    6          7          8
     6  H    0.000000
     7  H    1.654584   0.000000
     8  H    1.654584   1.654584   0.000000
 Stoichiometry    CH6N(1+)
 Framework group  C3[C3(CN),X(H6)]
 Deg. of freedom     6
 Full point group                 C3      NOp   3
 RotChk:  IX=0 Diff= 0.00D+00
 Largest Abelian subgroup         C1      NOp   1
 Largest concise Abelian subgroup C1      NOp   1
                         Standard orientation:                         
 ---------------------------------------------------------------------
 Center     Atomic      Atomic             Coordinates (Angstroms)
 Number     Number       Type             X           Y           Z
 ---------------------------------------------------------------------
      1          6           0        0.000000    0.000000   -0.799195
      2          1           0        1.029143   -0.095766   -1.142119
      3          1           0       -0.597507   -0.843381   -1.142119
      4          1           0       -0.431636    0.939147   -1.142119
      5          7           0        0.000000    0.000000    0.708901
      6          1           0       -0.951165    0.088512    1.086408
      7          1           0        0.398929   -0.867989    1.086408
      8          1           0        0.552236    0.779477    1.086408
 ---------------------------------------------------------------------
 Rotational constants (GHZ):     84.3835618     20.0485144     20.0485144
 Leave Link  202 at Thu Feb 26 00:42:44 2015, MaxMem= 1073741824 cpu:       0.0
 (Enter /apps/gaussian/g09_c01/g09/l301.exe)
 Standard basis: 6-31G(d) (6D, 7F)
 Ernie: Thresh=  0.10000D-02 Tol=  0.10000D-05 Strict=F.
 There are    42 symmetry adapted basis functions of A   symmetry.
 Integral buffers will be    131072 words long.
 Raffenetti 2 integral format.
 Two-electron integral symmetry is turned on.
    42 basis functions,    80 primitive gaussians,    42 cartesian basis functions
     9 alpha electrons        9 beta electrons
       nuclear repulsion energy        47.7293764733 Hartrees.
 IExCor=20419 DFT=T Ex+Corr=CAM-B3LYP ExCW=0 ScaHFX=  1.000000
 ScaDFX=  1.000000  1.000000  1.000000  0.810000 ScalE2=  1.000000  1.000000
 IRadAn=      5 IRanWt=     -1 IRanGd=            0 ICorTp=0
  HFx wShort=  0.000000 wLong=  0.330000 cFull=  0.190000 cShort=  0.000000 cLong=  0.460000
  DFx wShort=  0.000000 wLong=  0.330000 cFull=  0.190000 cShort=  0.000000 cLong=  0.460000
 NAtoms=    8 NActive=    8 NUniq=    4 SFac= 4.00D+00 NAtFMM=   60 NAOKFM=F Big=F
 Leave Link  301 at Thu Feb 26 00:42:44 2015, MaxMem= 1073741824 cpu:       0.3
 (Enter /apps/gaussian/g09_c01/g09/l302.exe)
 NPDir=0 NMtPBC=     1 NCelOv=     1 NCel=       1 NClECP=     1 NCelD=      1
         NCelK=      1 NCelE2=     1 NClLst=     1 CellRange=     0.0.
 One-electron integrals computed using PRISM.
 NBasis=    42 RedAO= T  NBF=    42
 NBsUse=    42 1.00D-06 NBFU=    42
 Precomputing XC quadrature grid using
 IXCGrd= 2 IRadAn=           5 IRanWt=          -1 IRanGd=           0 AccXCQ= 0.00D+00.
 NRdTot=     652 NPtTot=      172830 NUsed=      177511 NTot=      177543
 NSgBfM=    42    42    42    42    42 NAtAll=     8     8.
 Leave Link  302 at Thu Feb 26 00:42:44 2015, MaxMem= 1073741824 cpu:       1.0
 (Enter /apps/gaussian/g09_c01/g09/l303.exe)
 DipDrv:  MaxL=1.
 Leave Link  303 at Thu Feb 26 00:42:44 2015, MaxMem= 1073741824 cpu:       0.1
 (Enter /apps/gaussian/g09_c01/g09/l401.exe)
 Initial guess read from the read-write file.
 B after Tr=     0.000000    0.000000    0.000000
         Rot=    1.000000    0.000000    0.000000    0.000000 Ang=   0.00 deg.
 Guess basis will be translated and rotated to current coordinates.
 Initial guess orbital symmetries:
       Occupied  (A) (A) (A) (A) (E) (E) (A) (E) (E)
       Virtual   (A) (E) (E) (A) (A) (E) (E) (A) (E) (E) (E) (E)
                 (A) (E) (E) (A) (E) (E) (A) (A) (E) (E) (A) (A)
                 (E) (E) (E) (E) (E) (E) (A) (A) (A)
 The electronic state of the initial guess is 1-A.
 Leave Link  401 at Thu Feb 26 00:42:45 2015, MaxMem= 1073741824 cpu:       0.5
 (Enter /apps/gaussian/g09_c01/g09/l502.exe)
 Closed shell SCF:
 Requested convergence on RMS density matrix=1.00D-08 within 128 cycles.
 Requested convergence on MAX density matrix=1.00D-06.
 Requested convergence on             energy=1.00D-06.
 No special actions if energy rises.
 Using DIIS extrapolation, IDIIS=  1040.
 Integral symmetry usage will be decided dynamically.
       177426 words used for storage of precomputed grid.
 IEnd=      201570 IEndB=      201570 NGot=  1073741824 MDV=  1073558701
 LenX=  1073558701 LenY=  1073556496
 Fock matrices will be formed incrementally for  20 cycles.

 Cycle   1  Pass 1  IDiag  1:
 FoFJK:  IHMeth= 1 ICntrl=     0 DoSepK=T KAlg= 1 I1Cent= 0 FoldK=F
 FoFCou: FMM=F IPFlag=           0 FMFlag=      100000 FMFlg1=           0
         NFxFlg=           0 DoJE=T BraDBF=F KetDBF=F FulRan=T
         Omega=  0.000000  0.000000  1.000000  0.000000  0.000000 ICntrl=     500 IOpCl=  0
         NMat0=    1 NMatS0=    1 NMatT0=    0 NMatD0=    1 NMtDS0=    0 NMtDT0=    0
         I1Cent=           0 NGrid=           0.
 Petite list used in FoFCou.
 E= -96.1560840271823    
 DIIS: error= 5.43D-04 at cycle   1 NSaved=   1.
 NSaved= 1 IEnMin= 1 EnMin= -96.1560840271823     IErMin= 1 ErrMin= 5.43D-04
 ErrMax= 5.43D-04 EMaxC= 1.00D-01 BMatC= 1.40D-05 BMatP= 1.40D-05
 IDIUse=3 WtCom= 9.95D-01 WtEn= 5.43D-03
 Coeff-Com:  0.100D+01
 Coeff-En:   0.100D+01
 Coeff:      0.100D+01
 Gap=     0.556 Goal=   None    Shift=    0.000
 RMSDP=1.13D-04 MaxDP=1.37D-03              OVMax= 1.79D-03

 Cycle   2  Pass 1  IDiag  1:
 RMSU=  7.98D-05    CP:  1.00D+00
 FoFJK:  IHMeth= 1 ICntrl=     0 DoSepK=T KAlg= 1 I1Cent= 0 FoldK=F
 E= -96.1561027518488     Delta-E=       -0.000018724667 Rises=F Damp=F
 DIIS: error= 2.37D-04 at cycle   2 NSaved=   2.
 NSaved= 2 IEnMin= 2 EnMin= -96.1561027518488     IErMin= 2 ErrMin= 2.37D-04
 ErrMax= 2.37D-04 EMaxC= 1.00D-01 BMatC= 2.11D-06 BMatP= 1.40D-05
 IDIUse=3 WtCom= 9.98D-01 WtEn= 2.37D-03
 Coeff-Com:  0.162D+00 0.838D+00
 Coeff-En:   0.000D+00 0.100D+01
 Coeff:      0.162D+00 0.838D+00
 Gap=     0.556 Goal=   None    Shift=    0.000
 RMSDP=3.83D-05 MaxDP=4.38D-04 DE=-1.87D-05 OVMax= 5.20D-04

 Cycle   3  Pass 1  IDiag  1:
 RMSU=  2.62D-05    CP:  1.00D+00  1.00D+00
 FoFJK:  IHMeth= 1 ICntrl=     0 DoSepK=T KAlg= 1 I1Cent= 0 FoldK=F
 E= -96.1561042440223     Delta-E=       -0.000001492173 Rises=F Damp=F
 DIIS: error= 1.33D-04 at cycle   3 NSaved=   3.
 NSaved= 3 IEnMin= 3 EnMin= -96.1561042440223     IErMin= 3 ErrMin= 1.33D-04
 ErrMax= 1.33D-04 EMaxC= 1.00D-01 BMatC= 7.58D-07 BMatP= 2.11D-06
 IDIUse=3 WtCom= 9.99D-01 WtEn= 1.33D-03
 Coeff-Com: -0.690D-01 0.356D+00 0.713D+00
 Coeff-En:   0.000D+00 0.121D+00 0.879D+00
 Coeff:     -0.689D-01 0.356D+00 0.713D+00
 Gap=     0.556 Goal=   None    Shift=    0.000
 RMSDP=1.42D-05 MaxDP=1.93D-04 DE=-1.49D-06 OVMax= 2.21D-04

 Cycle   4  Pass 1  IDiag  1:
 RMSU=  4.78D-06    CP:  1.00D+00  1.08D+00  7.82D-01
 FoFJK:  IHMeth= 1 ICntrl=     0 DoSepK=T KAlg= 1 I1Cent= 0 FoldK=F
 E= -96.1561048991371     Delta-E=       -0.000000655115 Rises=F Damp=F
 DIIS: error= 1.48D-05 at cycle   4 NSaved=   4.
 NSaved= 4 IEnMin= 4 EnMin= -96.1561048991371     IErMin= 4 ErrMin= 1.48D-05
 ErrMax= 1.48D-05 EMaxC= 1.00D-01 BMatC= 1.26D-08 BMatP= 7.58D-07
 IDIUse=1 WtCom= 1.00D+00 WtEn= 0.00D+00
 Coeff-Com: -0.262D-01 0.106D+00 0.247D+00 0.673D+00
 Coeff:     -0.262D-01 0.106D+00 0.247D+00 0.673D+00
 Gap=     0.556 Goal=   None    Shift=    0.000
 RMSDP=2.41D-06 MaxDP=3.27D-05 DE=-6.55D-07 OVMax= 5.04D-05

 Cycle   5  Pass 1  IDiag  1:
 RMSU=  1.55D-06    CP:  1.00D+00  1.09D+00  7.90D-01  9.06D-01
 FoFJK:  IHMeth= 1 ICntrl=     0 DoSepK=T KAlg= 1 I1Cent= 0 FoldK=F
 E= -96.1561049097778     Delta-E=       -0.000000010641 Rises=F Damp=F
 DIIS: error= 5.24D-06 at cycle   5 NSaved=   5.
 NSaved= 5 IEnMin= 5 EnMin= -96.1561049097778     IErMin= 5 ErrMin= 5.24D-06
 ErrMax= 5.24D-06 EMaxC= 1.00D-01 BMatC= 1.24D-09 BMatP= 1.26D-08
 IDIUse=1 WtCom= 1.00D+00 WtEn= 0.00D+00
 Coeff-Com:  0.279D-03-0.115D-01-0.116D-01 0.226D+00 0.796D+00
 Coeff:      0.279D-03-0.115D-01-0.116D-01 0.226D+00 0.796D+00
 Gap=     0.556 Goal=   None    Shift=    0.000
 RMSDP=7.20D-07 MaxDP=8.04D-06 DE=-1.06D-08 OVMax= 8.46D-06

 Cycle   6  Pass 1  IDiag  1:
 RMSU=  2.69D-07    CP:  1.00D+00  1.09D+00  7.99D-01  9.77D-01  9.35D-01
 FoFJK:  IHMeth= 1 ICntrl=     0 DoSepK=T KAlg= 1 I1Cent= 0 FoldK=F
 E= -96.1561049109123     Delta-E=       -0.000000001135 Rises=F Damp=F
 DIIS: error= 4.01D-07 at cycle   6 NSaved=   6.
 NSaved= 6 IEnMin= 6 EnMin= -96.1561049109123     IErMin= 6 ErrMin= 4.01D-07
 ErrMax= 4.01D-07 EMaxC= 1.00D-01 BMatC= 5.05D-12 BMatP= 1.24D-09
 IDIUse=1 WtCom= 1.00D+00 WtEn= 0.00D+00
 Coeff-Com:  0.775D-03-0.385D-02-0.842D-02 0.469D-03 0.260D-01 0.985D+00
 Coeff:      0.775D-03-0.385D-02-0.842D-02 0.469D-03 0.260D-01 0.985D+00
 Gap=     0.556 Goal=   None    Shift=    0.000
 RMSDP=1.05D-07 MaxDP=1.11D-06 DE=-1.13D-09 OVMax= 1.16D-06

 Cycle   7  Pass 1  IDiag  1:
 RMSU=  2.25D-08    CP:  1.00D+00  1.09D+00  8.00D-01  9.87D-01  9.58D-01
                    CP:  1.07D+00
 FoFJK:  IHMeth= 1 ICntrl=     0 DoSepK=T KAlg= 1 I1Cent= 0 FoldK=F
 E= -96.1561049109207     Delta-E=       -0.000000000008 Rises=F Damp=F
 DIIS: error= 3.81D-08 at cycle   7 NSaved=   7.
 NSaved= 7 IEnMin= 7 EnMin= -96.1561049109207     IErMin= 7 ErrMin= 3.81D-08
 ErrMax= 3.81D-08 EMaxC= 1.00D-01 BMatC= 7.86D-14 BMatP= 5.05D-12
 IDIUse=1 WtCom= 1.00D+00 WtEn= 0.00D+00
 Coeff-Com: -0.355D-04 0.280D-03 0.459D-03-0.139D-02-0.111D-01-0.644D-01
 Coeff-Com:  0.108D+01
 Coeff:     -0.355D-04 0.280D-03 0.459D-03-0.139D-02-0.111D-01-0.644D-01
 Coeff:      0.108D+01
 Gap=     0.556 Goal=   None    Shift=    0.000
 RMSDP=1.26D-08 MaxDP=1.18D-07 DE=-8.36D-12 OVMax= 1.55D-07

 Cycle   8  Pass 1  IDiag  1:
 RMSU=  2.11D-09    CP:  1.00D+00  1.09D+00  8.00D-01  9.87D-01  9.60D-01
                    CP:  1.09D+00  1.19D+00
 FoFJK:  IHMeth= 1 ICntrl=     0 DoSepK=T KAlg= 1 I1Cent= 0 FoldK=F
 E= -96.1561049109206     Delta-E=        0.000000000000 Rises=F Damp=F
 DIIS: error= 5.71D-09 at cycle   8 NSaved=   8.
 NSaved= 8 IEnMin= 7 EnMin= -96.1561049109207     IErMin= 8 ErrMin= 5.71D-09
 ErrMax= 5.71D-09 EMaxC= 1.00D-01 BMatC= 1.49D-15 BMatP= 7.86D-14
 IDIUse=1 WtCom= 1.00D+00 WtEn= 0.00D+00
 Coeff-Com: -0.170D-04 0.991D-04 0.195D-03-0.868D-04-0.173D-02-0.225D-01
 Coeff-Com:  0.101D+00 0.923D+00
 Coeff:     -0.170D-04 0.991D-04 0.195D-03-0.868D-04-0.173D-02-0.225D-01
 Coeff:      0.101D+00 0.923D+00
 Gap=     0.556 Goal=   None    Shift=    0.000
 RMSDP=1.03D-09 MaxDP=1.15D-08 DE= 5.68D-14 OVMax= 1.51D-08

 SCF Done:  E(RCAM-B3LYP) =  -96.1561049109     A.U. after    8 cycles
             Convg  =    0.1034D-08             -V/T =  2.0101
 KE= 9.519296787698D+01 PE=-3.129623012853D+02 EE= 7.388385202409D+01
 Leave Link  502 at Thu Feb 26 00:42:47 2015, MaxMem= 1073741824 cpu:      19.5
 (Enter /apps/gaussian/g09_c01/g09/l801.exe)
 Range of M.O.s used for correlation:     1    42
 NBasis=    42 NAE=     9 NBE=     9 NFC=     0 NFV=     0
 NROrb=     42 NOA=     9 NOB=     9 NVA=    33 NVB=    33
 Leave Link  801 at Thu Feb 26 00:42:47 2015, MaxMem= 1073741824 cpu:       0.1
 (Enter /apps/gaussian/g09_c01/g09/l1002.exe)
 Minotr:  Closed shell wavefunction.
          Direct CPHF calculation.
          Differentiating once with respect to electric field.
                with respect to dipole field.
          Electric field/nuclear overlap derivatives assumed to be zero.
          Using symmetry in CPHF.
          Requested convergence is 1.0D-08 RMS, and 1.0D-07 maximum.
          Secondary convergence is 1.0D-12 RMS, and 1.0D-12 maximum.
          NewPWx=F KeepS1=T KeepF1=T KeepIn=T MapXYZ=F SortEE=F KeepMc=T.
          MDV=    1073741756 using IRadAn=       1.
 Generate precomputed XC quadrature information.
          Solving linear equations simultaneously, MaxMat=       0.
          There are     3 degrees of freedom in the 1st order CPHF.  IDoFFX=0.
      3 vectors produced by pass  0 Test12= 9.90D-15 3.33D-08 XBig12= 5.48D+00 1.39D+00.
 AX will form     3 AO Fock derivatives at one time.
 FoFJK:  IHMeth= 1 ICntrl=     0 DoSepK=T KAlg= 1 I1Cent= 0 FoldK=F
 FoFCou: FMM=F IPFlag=           0 FMFlag=      100000 FMFlg1=           0
         NFxFlg=           0 DoJE=T BraDBF=F KetDBF=F FulRan=T
         Omega=  0.000000  0.000000  1.000000  0.000000  0.000000 ICntrl=     500 IOpCl=  0
         NMat0=    3 NMatS0=    3 NMatT0=    0 NMatD0=    3 NMtDS0=    0 NMtDT0=    0
         I1Cent=           0 NGrid=           0.
 Symmetry not used in FoFCou.
      3 vectors produced by pass  1 Test12= 9.90D-15 3.33D-08 XBig12= 1.96D-01 1.81D-01.
 FoFJK:  IHMeth= 1 ICntrl=     0 DoSepK=T KAlg= 1 I1Cent= 0 FoldK=F
      3 vectors produced by pass  2 Test12= 9.90D-15 3.33D-08 XBig12= 3.77D-02 6.08D-02.
 FoFJK:  IHMeth= 1 ICntrl=     0 DoSepK=T KAlg= 1 I1Cent= 0 FoldK=F
      3 vectors produced by pass  3 Test12= 9.90D-15 3.33D-08 XBig12= 1.67D-03 1.44D-02.
 FoFJK:  IHMeth= 1 ICntrl=     0 DoSepK=T KAlg= 1 I1Cent= 0 FoldK=F
      3 vectors produced by pass  4 Test12= 9.90D-15 3.33D-08 XBig12= 3.21D-04 5.50D-03.
 FoFJK:  IHMeth= 1 ICntrl=     0 DoSepK=T KAlg= 1 I1Cent= 0 FoldK=F
      3 vectors produced by pass  5 Test12= 9.90D-15 3.33D-08 XBig12= 3.71D-06 4.85D-04.
 FoFJK:  IHMeth= 1 ICntrl=     0 DoSepK=T KAlg= 1 I1Cent= 0 FoldK=F
      3 vectors produced by pass  6 Test12= 9.90D-15 3.33D-08 XBig12= 3.16D-08 8.97D-05.
 FoFJK:  IHMeth= 1 ICntrl=     0 DoSepK=T KAlg= 1 I1Cent= 0 FoldK=F
      3 vectors produced by pass  7 Test12= 9.90D-15 3.33D-08 XBig12= 5.96D-10 7.59D-06.
 FoFJK:  IHMeth= 1 ICntrl=     0 DoSepK=T KAlg= 1 I1Cent= 0 FoldK=F
      1 vectors produced by pass  8 Test12= 9.90D-15 3.33D-08 XBig12= 8.21D-12 1.06D-06.
 FoFJK:  IHMeth= 1 ICntrl=     0 DoSepK=T KAlg= 1 I1Cent= 0 FoldK=F
      1 vectors produced by pass  9 Test12= 9.90D-15 3.33D-08 XBig12= 2.53D-14 5.68D-08.
 FoFJK:  IHMeth= 1 ICntrl=     0 DoSepK=T KAlg= 1 I1Cent= 0 FoldK=F
 Inverted reduced A of dimension    26 with in-core refinement.
 End of Minotr Frequency-dependent properties file   721 does not exist.
 End of Minotr Frequency-dependent properties file   722 does not exist.
 Leave Link 1002 at Thu Feb 26 00:42:50 2015, MaxMem= 1073741824 cpu:      26.5
 (Enter /apps/gaussian/g09_c01/g09/l1101.exe)
 Using compressed storage, NAtomX=     8.
 Will process   9 centers per pass.
 Leave Link 1101 at Thu Feb 26 00:42:50 2015, MaxMem= 1073741824 cpu:       0.9
 (Enter /apps/gaussian/g09_c01/g09/l1102.exe)
 Symmetrizing basis deriv contribution to polar:
 IMax=3 JMax=2 DiffMx= 0.00D+00
 Leave Link 1102 at Thu Feb 26 00:42:50 2015, MaxMem= 1073741824 cpu:       0.1
 (Enter /apps/gaussian/g09_c01/g09/l1110.exe)
 Forming Gx(P) for the SCF density, NAtomX=     8.
 Integral derivatives from FoFDir/FoFCou, PRISM(SPDF).
 Do as many integral derivatives as possible in FoFDir.
 G2DrvN: MDV=    1073741656.
 G2DrvN: will do     9 centers at a time, making    1 passes doing MaxLOS=2.
 Calling FoFCou, ICntrl=  3107 FMM=F I1Cent=   0 AccDes= 0.00D+00.
 FoFJK:  IHMeth= 1 ICntrl=  3107 DoSepK=T KAlg= 1 I1Cent= 0 FoldK=F
 FoFCou: FMM=F IPFlag=           0 FMFlag=      100000 FMFlg1=           0
         NFxFlg=           0 DoJE=F BraDBF=F KetDBF=F FulRan=T
         Omega=  0.000000  0.000000  1.000000  0.000000  0.000000 ICntrl=    3507 IOpCl=  0
         NMat0=    1 NMatS0=    1 NMatT0=    0 NMatD0=    4 NMtDS0=    3 NMtDT0=    0
         I1Cent=           0 NGrid=           0.
 Petite list used in FoFCou.
 FoFDir/FoFCou used for L=0 through L=2.
 End of G2Drv Frequency-dependent properties file   721 does not exist.
 End of G2Drv Frequency-dependent properties file   722 does not exist.
 Leave Link 1110 at Thu Feb 26 00:42:52 2015, MaxMem= 1073741824 cpu:      13.0
 (Enter /apps/gaussian/g09_c01/g09/l1002.exe)
 Minotr:  Closed shell wavefunction.
          IDoAtm=11111111
          Direct CPHF calculation.
          Differentiating once with respect to electric field.
                with respect to dipole field.
          Differentiating once with respect to nuclear coordinates.
          Using symmetry in CPHF.
          Requested convergence is 1.0D-08 RMS, and 1.0D-07 maximum.
          Secondary convergence is 1.0D-12 RMS, and 1.0D-12 maximum.
          NewPWx=T KeepS1=F KeepF1=F KeepIn=T MapXYZ=F SortEE=F KeepMc=T.
          MDV=    1073741740 using IRadAn=       1.
 Generate precomputed XC quadrature information.
          Solving linear equations simultaneously, MaxMat=       0.
 FoFJK:  IHMeth= 1 ICntrl=     0 DoSepK=T KAlg= 1 I1Cent= 0 FoldK=F
 FoFCou: FMM=F IPFlag=           0 FMFlag=      100000 FMFlg1=           0
         NFxFlg=           0 DoJE=F BraDBF=F KetDBF=F FulRan=T
         Omega=  0.000000  0.000000  1.000000  0.000000  0.000000 ICntrl=     500 IOpCl=  0
         NMat0=   15 NMatS0=   15 NMatT0=    0 NMatD0=   15 NMtDS0=    0 NMtDT0=    0
         I1Cent=           0 NGrid=           0.
 Integrals replicated using symmetry in FoFCou.
          There are    15 degrees of freedom in the 1st order CPHF.  IDoFFX=4.
 Will reuse    3 saved solutions.
     12 vectors produced by pass  0 Test12= 1.98D-15 6.67D-09 XBig12= 5.65D-02 9.89D-02.
 AX will form    12 AO Fock derivatives at one time.
 FoFJK:  IHMeth= 1 ICntrl=     0 DoSepK=T KAlg= 1 I1Cent= 0 FoldK=F
     12 vectors produced by pass  1 Test12= 1.98D-15 6.67D-09 XBig12= 6.54D-03 2.47D-02.
 FoFJK:  IHMeth= 1 ICntrl=     0 DoSepK=T KAlg= 1 I1Cent= 0 FoldK=F
     12 vectors produced by pass  2 Test12= 1.98D-15 6.67D-09 XBig12= 1.98D-05 1.40D-03.
 FoFJK:  IHMeth= 1 ICntrl=     0 DoSepK=T KAlg= 1 I1Cent= 0 FoldK=F
     12 vectors produced by pass  3 Test12= 1.98D-15 6.67D-09 XBig12= 5.69D-08 7.60D-05.
 FoFJK:  IHMeth= 1 ICntrl=     0 DoSepK=T KAlg= 1 I1Cent= 0 FoldK=F
     12 vectors produced by pass  4 Test12= 1.98D-15 6.67D-09 XBig12= 1.68D-10 5.37D-06.
 FoFJK:  IHMeth= 1 ICntrl=     0 DoSepK=T KAlg= 1 I1Cent= 0 FoldK=F
     12 vectors produced by pass  5 Test12= 1.98D-15 6.67D-09 XBig12= 3.81D-13 1.50D-07.
 FoFJK:  IHMeth= 1 ICntrl=     0 DoSepK=T KAlg= 1 I1Cent= 0 FoldK=F
      1 vectors produced by pass  6 Test12= 1.98D-15 6.67D-09 XBig12= 8.70D-16 6.81D-09.
 FoFJK:  IHMeth= 1 ICntrl=     0 DoSepK=T KAlg= 1 I1Cent= 0 FoldK=F
 Inverted reduced A of dimension    73 with in-core refinement.
 FullF1:  Do perturbations    1 to    15.
 FoFJK:  IHMeth= 1 ICntrl=     0 DoSepK=T KAlg= 1 I1Cent= 0 FoldK=F
 Isotropic polarizability for W=    0.000000       16.91 Bohr**3.
 FoFJK:  IHMeth= 1 ICntrl=     0 DoSepK=T KAlg= 1 I1Cent= 0 FoldK=F
 FullF1:  Do perturbations    1 to     6.
 FoFJK:  IHMeth= 1 ICntrl=     0 DoSepK=T KAlg= 1 I1Cent= 0 FoldK=F
 End of Minotr Frequency-dependent properties file   721 does not exist.
 End of Minotr Frequency-dependent properties file   722 does not exist.
 Leave Link 1002 at Thu Feb 26 00:42:55 2015, MaxMem= 1073741824 cpu:      23.4
 (Enter /apps/gaussian/g09_c01/g09/l701.exe)
 Compute integral second derivatives.
 ... and contract with generalized density number  0.
 Leave Link  701 at Thu Feb 26 00:42:55 2015, MaxMem= 1073741824 cpu:       1.2
 (Enter /apps/gaussian/g09_c01/g09/l702.exe)
 L702 exits ... SP integral derivatives will be done elsewhere.
 Leave Link  702 at Thu Feb 26 00:42:55 2015, MaxMem= 1073741824 cpu:       0.1
 (Enter /apps/gaussian/g09_c01/g09/l703.exe)
 Compute integral second derivatives, UseDBF=F ICtDFT=           0.
 Integral derivatives from FoFDir, PRISM(SPDF).
 Calling FoFJK, ICntrl=    100127 FMM=F ISym2X=1 I1Cent= 0 IOpClX= 0 NMat=1 NMatS=1 NMatT=0.
 FoFJK:  IHMeth= 1 ICntrl=100127 DoSepK=T KAlg= 1 I1Cent= 0 FoldK=F
 FoFCou: FMM=F IPFlag=           0 FMFlag=      100000 FMFlg1=         800
         NFxFlg=           0 DoJE=F BraDBF=F KetDBF=F FulRan=T
         Omega=  0.000000  0.000000  1.000000  0.000000  0.000000 ICntrl=  100527 IOpCl=  0
         NMat0=    1 NMatS0=    1 NMatT0=    0 NMatD0=    1 NMtDS0=    0 NMtDT0=    0
         I1Cent=           0 NGrid=           0.
 Petite list used in FoFCou.
 Leave Link  703 at Thu Feb 26 00:42:57 2015, MaxMem= 1073741824 cpu:      12.7
 (Enter /apps/gaussian/g09_c01/g09/l716.exe)
 Dipole        =-7.97972799D-16-1.40165657D-15 9.07103451D-01
 Polarizability= 1.64148496D+01 1.84311768D-06 1.64148351D+01
                 1.83438688D-06 1.80522413D-05 1.79016585D+01
 HyperPolar    = 5.10819027D+00-1.45970014D+00-5.10780648D+00
                 1.45991364D+00-2.95585160D+00 1.68914744D-04
                -2.95587406D+00 6.59870508D-05 6.22489792D-05
                -7.20149707D-01
 ***** Axes restored to original set *****
 -------------------------------------------------------------------
 Center     Atomic                   Forces (Hartrees/Bohr)
 Number     Number              X              Y              Z
 -------------------------------------------------------------------
      1        6           0.000000000    0.000000000   -0.000107925
      2        1          -0.000000135   -0.000001626   -0.000001356
      3        1          -0.000001341    0.000000930   -0.000001356
      4        1           0.000001476    0.000000696   -0.000001356
      5        7           0.000000000    0.000000000    0.000098519
      6        1           0.000000134    0.000001709    0.000004491
      7        1          -0.000001547   -0.000000739    0.000004491
      8        1           0.000001413   -0.000000970    0.000004491
 -------------------------------------------------------------------
 Cartesian Forces:  Max     0.000107925 RMS     0.000029886
 Force constants in Cartesian coordinates: 
                1             2             3             4             5 
      1  0.654978D+00
      2  0.000000D+00  0.654978D+00
      3  0.000000D+00  0.000000D+00  0.430842D+00
      4 -0.560995D-01 -0.248579D-01 -0.808023D-02  0.505554D-01
[...]
      3        1          -0.000000011   -0.000000018    0.000000002
      4        1          -0.000000010    0.000000019    0.000000002
      5        7           0.000000000    0.000000000    0.000000000
      6        1          -0.000000019    0.000000006    0.000000002
      7        1           0.000000004   -0.000000019    0.000000002
      8        1           0.000000015    0.000000014    0.000000002
 -------------------------------------------------------------------
 Cartesian Forces:  Max     0.000000021 RMS     0.000000011
 Force constants in Cartesian coordinates: 
                1             2             3             4             5 
      1  0.655005D+00
      2  0.000000D+00  0.655005D+00
      3  0.000000D+00  0.000000D+00  0.430451D+00
      4 -0.561005D-01 -0.248599D-01 -0.807913D-02  0.505554D-01
      5 -0.248599D-01 -0.320943D+00 -0.867933D-01  0.264453D-01  0.332287D+00
      6 -0.669471D-02 -0.719152D-01 -0.747974D-01  0.825066D-02  0.886388D-01
      7 -0.233203D+00  0.127110D+00 -0.711257D-01  0.507964D-02 -0.327029D-02
      8  0.127110D+00 -0.143840D+00  0.503934D-01  0.236887D-01 -0.124415D-01
      9 -0.589330D-01  0.417553D-01 -0.747974D-01  0.971431D-02 -0.440067D-02
     10 -0.276262D+00 -0.102250D+00  0.792048D-01  0.780227D-03  0.788019D-03
     11 -0.102250D+00 -0.100782D+00  0.363999D-01 -0.261710D-01 -0.814208D-02
     12  0.656277D-01  0.301598D-01 -0.747974D-01 -0.103594D-01 -0.253265D-02
     13 -0.101153D+00  0.000000D+00  0.000000D+00 -0.890148D-03  0.793858D-03
     14  0.000000D+00 -0.101153D+00  0.000000D+00  0.793853D-03  0.756775D-02
     15  0.000000D+00  0.000000D+00 -0.171570D+00  0.393377D-03  0.422846D-02
     16  0.268523D-03  0.682533D-03 -0.184041D-03  0.443281D-03  0.453878D-04
     17  0.682425D-03  0.754012D-02 -0.197847D-02  0.453963D-04  0.926726D-03
     18 -0.313988D-02 -0.337447D-01 -0.114961D-01  0.199842D-03  0.214741D-02
     19  0.631330D-02  0.280745D-02  0.180535D-02  0.154044D-03  0.240419D-03
     20  0.280740D-02  0.149535D-02  0.829794D-03  0.754113D-03  0.284663D-03
     21  0.307937D-01  0.141532D-01 -0.114961D-01  0.492844D-03 -0.695485D-03
     22  0.513113D-02 -0.348995D-02 -0.162135D-02 -0.218864D-04 -0.182883D-03
     23 -0.348996D-02  0.267751D-02  0.114856D-02 -0.696498D-03  0.460660D-03
     24 -0.276539D-01  0.195915D-01 -0.114961D-01 -0.612466D-03 -0.592674D-03
                6             7             8             9            10 
      6  0.894336D-01
      7  0.298638D-02  0.238952D+00
      8  0.102379D-01 -0.135216D+00  0.143890D+00
      9  0.537725D-02  0.726382D-01 -0.514647D-01  0.894336D-01
     10 -0.104606D-02 -0.169026D-01 -0.109972D-01  0.737305D-02  0.284756D+00
     11  0.106132D-01  0.159618D-01  0.954079D-02 -0.770521D-02  0.108771D+00
     12  0.537725D-02 -0.866824D-02 -0.621250D-02  0.537725D-02 -0.808888D-01
     13 -0.349940D-02  0.476581D-02 -0.405932D-02 -0.308208D-01  0.614091D-02
     14 -0.376092D-01 -0.405938D-02  0.191186D-02  0.218351D-01  0.326543D-02
     15 -0.208003D-01  0.346527D-02 -0.245498D-02 -0.208002D-01 -0.385885D-02
     16  0.178399D-03 -0.178637D-03 -0.562040D-03 -0.788178D-03 -0.407602D-04
     17  0.191698D-02 -0.483456D-04  0.617343D-03  0.522791D-03  0.171986D-03
     18 -0.692031D-02 -0.848730D-03 -0.790726D-04  0.116476D-02  0.819504D-03
     19 -0.586614D-04  0.720806D-03  0.267704D-03 -0.754483D-03  0.845175D-03
     20 -0.943977D-03 -0.245911D-03 -0.282033D-03  0.570268D-03  0.186646D-03
     21  0.116476D-02 -0.207038D-03  0.826748D-03  0.116510D-02 -0.195963D-02
     22 -0.116625D-03  0.766554D-03 -0.232038D-03  0.157096D-02  0.682653D-03
     23 -0.938535D-03 -0.232030D-03  0.603453D-03 -0.111299D-02  0.647740D-04
     24  0.116510D-02  0.175979D-02 -0.124677D-02 -0.692031D-02  0.355886D-03
               11            12            13            14            15 
     11  0.980859D-01
     12 -0.371741D-01  0.894336D-01
     13  0.326550D-02  0.343202D-01  0.746146D+00
     14  0.536827D-03  0.157740D-01  0.000000D+00  0.746146D+00
     15 -0.177364D-02 -0.208002D-01  0.000000D+00  0.000000D+00  0.549670D+00
     16  0.685601D-03  0.871108D-03 -0.711074D-01 -0.276370D-01 -0.103704D-01
     17  0.479533D-03  0.368267D-03 -0.276370D-01 -0.365565D+00 -0.111454D+00
     18 -0.234073D-03  0.116510D-02 -0.111076D-01 -0.119377D+00 -0.105233D+00
     19  0.186638D-03 -0.174936D-02 -0.315885D+00 -0.113686D+00  0.101707D+00
     20  0.524831D-03 -0.803994D-03 -0.113686D+00 -0.120788D+00  0.467460D-01
     21 -0.900637D-03 -0.692031D-02  0.108937D+00  0.500690D-01 -0.105233D+00
     22 -0.448920D-03  0.846839D-03 -0.268017D+00  0.141323D+00 -0.913369D-01
     23 -0.243947D-03  0.421186D-03  0.141323D+00 -0.168656D+00  0.647082D-01
     24  0.774558D-03  0.116476D-02 -0.978297D-01  0.693079D-01 -0.105233D+00
               16            17            18            19            20 
     16  0.633329D-01
     17  0.299880D-01  0.382836D+00
     18  0.112940D-01  0.121382D+00  0.107928D+00
     19  0.867716D-03  0.333045D-03 -0.103047D-02  0.328931D+00
     20 -0.330812D-01 -0.106438D-01  0.151781D-01  0.123355D+00  0.117238D+00
     21 -0.146607D-01 -0.406102D-02  0.669591D-02 -0.110767D+00 -0.509102D-01
     22  0.641444D-02 -0.353545D-02  0.381339D-02 -0.219463D-01  0.199095D-01
     23  0.298788D-01 -0.161905D-01  0.147270D-01 -0.135047D-01  0.121702D-01
     24  0.136599D-01 -0.669666D-02  0.669591D-02  0.108473D-01 -0.106660D-01
               21            22            23            24 
     21  0.107928D+00
     22 -0.126294D-01  0.276990D+00
     23 -0.848149D-02 -0.153343D+00  0.169179D+00
     24  0.669591D-02  0.994731D-01 -0.704720D-01  0.107928D+00
 Red2BG is reusing G-inverse.
 Force constants in internal coordinates: 
                1             2             3             4             5 
      1  0.363635D+00
      2  0.171318D-02  0.363635D+00
      3  0.171318D-02  0.171317D-02  0.363635D+00
      4  0.314406D-02  0.314399D-02  0.314389D-02  0.282231D+00
      5 -0.133718D-02  0.293640D-03  0.293550D-03  0.513716D-02  0.431453D+00
      6  0.293657D-03  0.293546D-03 -0.133714D-02  0.513704D-02  0.182293D-02
      7  0.293535D-03 -0.133717D-02  0.293651D-03  0.513707D-02  0.182292D-02
      8  0.392050D-02  0.392097D-02 -0.119590D-02 -0.264275D-01 -0.739962D-04
      9  0.392097D-02 -0.119591D-02  0.392054D-02 -0.264275D-01 -0.738222D-04
     10 -0.221957D-03 -0.335919D-02 -0.335934D-02  0.276001D-01  0.247360D-02
     11 -0.119591D-02  0.392050D-02  0.392100D-02 -0.264275D-01  0.905583D-03
     12 -0.335928D-02 -0.221986D-03 -0.335921D-02  0.276001D-01 -0.163264D-02
     13 -0.335920D-02 -0.335926D-02 -0.221968D-03  0.276002D-01 -0.163235D-02
     14  0.847365D-03  0.134035D-04  0.132481D-04  0.137614D-01 -0.485283D-02
     15  0.133797D-04  0.132357D-04  0.847348D-03  0.137615D-01 -0.338398D-02
     16  0.132272D-04  0.847338D-03  0.134491D-04  0.137614D-01 -0.338397D-02
     17 -0.422273D-03 -0.941949D-04 -0.422183D-03 -0.147794D-01  0.621532D-02
     18 -0.422154D-03 -0.422274D-03 -0.942138D-04 -0.147794D-01  0.621723D-02
     19 -0.941933D-04 -0.422158D-03 -0.422303D-03 -0.147794D-01  0.478439D-04
     20  0.000000D+00 -0.259667D-02  0.259664D-02  0.000000D+00  0.130315D-05
     21  0.511970D-04 -0.269850D-02  0.264755D-02  0.000000D+00  0.228574D-02
     22 -0.506515D-04 -0.264757D-02  0.269845D-02  0.000000D+00 -0.228558D-02
     23  0.264755D-02  0.511889D-04 -0.269851D-02  0.000000D+00  0.395660D-03
     24  0.269845D-02 -0.506395D-04 -0.264760D-02  0.000000D+00  0.268009D-02
     25  0.259660D-02  0.000000D+00 -0.259670D-02  0.000000D+00 -0.189122D-02
     26 -0.264757D-02  0.269844D-02 -0.506224D-04  0.000000D+00 -0.393433D-03
     27 -0.259667D-02  0.259661D-02  0.000000D+00  0.000000D+00  0.189100D-02
     28 -0.269852D-02  0.264754D-02  0.511903D-04  0.000000D+00 -0.268032D-02
                6             7             8             9            10 
      6  0.431453D+00
      7  0.182291D-02  0.431453D+00
      8  0.905581D-03 -0.738287D-04  0.544645D-01
      9 -0.739998D-04  0.905583D-03  0.124553D-01  0.544645D-01
     10 -0.163267D-02 -0.163231D-02 -0.470098D-01 -0.470077D-01  0.135707D+00
     11 -0.738295D-04 -0.740017D-04  0.124553D-01  0.124553D-01  0.111204D-01
     12 -0.163231D-02  0.247360D-02 -0.470077D-01  0.111204D-01 -0.245660D-01
     13  0.247360D-02 -0.163267D-02  0.111204D-01 -0.470098D-01 -0.245660D-01
     14 -0.338400D-02 -0.338398D-02 -0.421443D-02 -0.421465D-02  0.175580D-01
     15 -0.485283D-02 -0.338399D-02  0.354746D-02 -0.421441D-02 -0.622975D-02
     16 -0.338396D-02 -0.485283D-02 -0.421465D-02  0.354745D-02 -0.623004D-02
     17  0.621724D-02  0.478429D-04  0.745558D-03  0.375166D-02 -0.490903D-02
     18  0.478452D-04  0.621532D-02  0.375166D-02  0.745507D-03 -0.490892D-02
     19  0.621532D-02  0.621724D-02  0.745508D-03  0.745562D-03  0.434260D-02
     20 -0.189123D-02  0.189100D-02 -0.616615D-02  0.616520D-02  0.104604D-05
     21  0.395644D-03 -0.268032D-02 -0.567236D-02  0.517785D-02  0.149755D-02
     22  0.268009D-02 -0.393442D-03 -0.517879D-02  0.567164D-02 -0.149540D-02
     23 -0.268031D-02  0.228575D-02  0.517785D-02  0.493791D-03  0.744122D-02
     24 -0.393444D-03 -0.228557D-02  0.567164D-02 -0.493566D-03  0.893772D-02
     25  0.189100D-02  0.131058D-05  0.616521D-02  0.000000D+00  0.594477D-02
     26 -0.228556D-02  0.268009D-02 -0.493571D-03 -0.517880D-02 -0.744157D-02
     27  0.130475D-05 -0.189123D-02  0.000000D+00 -0.616615D-02 -0.594507D-02
     28  0.228575D-02  0.395647D-03  0.493791D-03 -0.567236D-02 -0.893801D-02
               11            12            13            14            15 
     11  0.544645D-01
     12 -0.470098D-01  0.135707D+00
     13 -0.470078D-01 -0.245660D-01  0.135707D+00
     14  0.354745D-02 -0.622973D-02 -0.623004D-02  0.103735D+00
     15 -0.421464D-02 -0.623006D-02  0.175580D-01 -0.183480D-01  0.103735D+00
     16 -0.421443D-02  0.175580D-01 -0.622975D-02 -0.183480D-01 -0.183481D-01
     17  0.745508D-03  0.434260D-02 -0.490892D-02 -0.426191D-01 -0.426190D-01
     18  0.745564D-03 -0.490904D-02  0.434261D-02 -0.426190D-01  0.132401D-01
     19  0.375166D-02 -0.490892D-02 -0.490903D-02  0.132401D-01 -0.426191D-01
     20  0.000000D+00 -0.594506D-02  0.594478D-02  0.000000D+00 -0.266955D-02
     21  0.493786D-03 -0.893801D-02  0.744122D-02  0.412007D-02  0.145077D-02
     22 -0.493570D-03 -0.744157D-02  0.893772D-02 -0.412049D-02  0.557101D-02
     23 -0.567236D-02  0.149754D-02 -0.893801D-02  0.145077D-02 -0.557098D-02
     24 -0.517879D-02 -0.149540D-02 -0.744157D-02  0.557100D-02 -0.145066D-02
     25 -0.616615D-02  0.103158D-05 -0.594507D-02 -0.266955D-02  0.266958D-02
     26  0.567164D-02  0.893773D-02 -0.149540D-02 -0.145066D-02 -0.412049D-02
     27  0.616521D-02  0.594478D-02  0.104344D-05  0.266958D-02  0.000000D+00
     28  0.517785D-02  0.744122D-02  0.149754D-02 -0.557097D-02  0.412007D-02
               16            17            18            19            20 
     16  0.103735D+00
     17  0.132401D-01  0.568968D-01
     18 -0.426191D-01  0.102135D-01  0.568968D-01
     19 -0.426190D-01  0.102135D-01  0.102135D-01  0.568968D-01
     20  0.266958D-02 -0.765930D-02  0.765939D-02  0.000000D+00  0.151513D-01
     21 -0.557098D-02  0.652084D-02  0.569346D-03 -0.709003D-02  0.356144D-02
     22 -0.145066D-02 -0.569214D-03 -0.652075D-02  0.709011D-02  0.356154D-02
     23  0.412008D-02 -0.709003D-02  0.652083D-02  0.569340D-03  0.433661D-02
     24 -0.412048D-02  0.709011D-02 -0.569211D-03 -0.652075D-02 -0.725326D-02
     25  0.000000D+00  0.000000D+00 -0.765931D-02  0.765939D-02 -0.725316D-02
     26  0.557101D-02 -0.652075D-02  0.709011D-02 -0.569210D-03  0.433671D-02
     27 -0.266955D-02  0.765939D-02  0.000000D+00 -0.765930D-02 -0.725316D-02
     28  0.145077D-02  0.569336D-03 -0.709003D-02  0.652084D-02 -0.725306D-02
               21            22            23            24            25 
     21  0.156859D-01
     22  0.382882D-02  0.156861D-01
     23 -0.752044D-02 -0.778782D-02  0.156859D-01
     24  0.460400D-02 -0.752054D-02  0.382882D-02  0.156861D-01
     25 -0.725306D-02  0.433672D-02  0.356144D-02  0.356154D-02  0.151513D-01
     26 -0.778782D-02 -0.752054D-02  0.460400D-02 -0.752054D-02 -0.725326D-02
     27  0.433662D-02 -0.725326D-02 -0.725306D-02  0.433671D-02 -0.725317D-02
     28 -0.752044D-02  0.460399D-02 -0.752044D-02 -0.778782D-02  0.433661D-02
               26            27            28 
     26  0.156861D-01
     27  0.356155D-02  0.151513D-01
     28  0.382882D-02  0.356144D-02  0.156859D-01
 Leave Link  716 at Thu Feb 26 00:43:20 2015, MaxMem= 1073741824 cpu:       0.1
 (Enter /apps/gaussian/g09_c01/g09/l9999.exe)
 1\1\GINC-CX1-1-8-1\Freq\RCAM-B3LYP\6-31G(d)\C1H6N1(1+)\JMF02\26-Feb-20
 15\0\\#p opt(VeryTight,CalcAll,Raman) Integral(Grid=UltraFine) CAM-b3l
 yp/6-31g*\\Autjob by noodles.sh | Great noodly basis sets\\1,1\C,-0.00
 00000526,0.0000000526,-0.7987912028\H,-0.0957686252,-1.0291654558,-1.1
 416459586\H,-0.8433992414,0.5975208236,-1.1416459586\H,0.9391677087,0.
 4316447901,-1.1416459586\N,-0.0000000526,0.0000000526,0.7095368819\H,0
 .088511455,0.9511716248,1.0870303976\H,-0.8679945513,-0.3989325194,1.0
 870303976\H,0.7794829385,-0.5522389476,1.0870303976\\Version=EM64L-G09
 RevC.01\State=1-A\HF=-96.1561049\RMSD=6.704e-09\RMSF=1.064e-08\ZeroPoi
 nt=0.0803739\Thermal=0.0838188\Dipole=0.,0.,0.9069748\DipoleDeriv=0.07
 89408,0.0000029,0.0000016,0.,0.0789394,0.0000007,-0.0000029,-0.000002,
 0.5463198,0.1348473,-0.0089128,-0.0006591,-0.0089101,0.0399075,-0.0070
 882,0.0048092,0.051672,0.0685596,0.0713603,0.045565,-0.005809,0.045566
 2,0.103395,0.0041151,0.0423454,-0.0300009,0.06856,0.0559238,-0.0366558
 ,0.0064672,-0.036654,0.11883,0.0029726,-0.0471533,-0.021671,0.0685604,
 -0.230043,0.0000008,0.000002,-0.0000008,-0.2300439,0.,-0.000001,0.0000
 013,-0.4794431,0.2759287,0.0038288,0.0041672,0.0038299,0.3167193,0.044
 7776,0.0026365,0.0283306,0.2424804,0.3098376,0.0157475,-0.0408627,0.01
 57484,0.2828101,-0.0187801,-0.0258528,-0.0118817,0.2424808,0.3032054,-
 0.0195774,0.0366946,-0.0195772,0.2894424,-0.0259973,0.023217,-0.016448
 5,0.2424804\Polar=16.4151898,-0.0000018,16.4152044,0.000018,-0.0000018
 ,17.9045031\PolarDeriv=-0.879012,-3.0758749,0.8789969,2.3527931,0.0000
 271,-0.0000014,-3.0758775,0.8790426,3.0758983,0.0000052,2.3527752,-0.0
 000142,1.458489,0.0000223,1.4584673,0.0000244,0.0000046,-2.7431997,-0.
 2533962,-1.2917313,-0.3481766,-1.2195957,-0.077265,-0.1296511,-0.20134
 05,-0.4496534,-6.2633341,-0.0772698,-2.0427278,-1.393464,-0.3599195,-0
 .0443425,-0.8323582,-0.2125422,-2.2839682,-1.6814644,-4.1716081,2.1245
 034,-1.1261945,-1.770038,0.395063,-1.1419455,1.4914027,-2.0197586,2.26
 18821,0.3950533,-1.492297,0.8090294,-0.67584,0.2267402,-0.5164328,-1.8
 717031,1.3260395,-1.6814651,5.1705424,1.7761248,0.7287904,-1.9038488,-
 0.3177866,1.2715974,1.3188378,1.7238218,1.3925471,-0.3177908,-1.358463
 7,0.584436,-0.7526678,-0.1824008,-0.4396287,2.0842313,0.9579232,-1.681
 4755,0.7318171,2.5608784,-0.7318643,-2.2970144,-0.0000003,-0.0000225,2
 .5608841,-0.7318879,-2.560917,0.000012,-2.2970071,0.0000026,-2.055563,
 -0.0000002,-2.0555616,-0.000032,-0.0000078,2.2747028,0.1978841,0.98632
 09,0.2833587,1.0230996,0.1106605,0.1501107,0.203421,0.3561981,4.967944
 9,0.1106708,2.2020466,1.6131879,0.3512824,0.0833216,1.2390562,0.193454
 ,2.078845,1.8376359,-4.096032,-1.4043823,-0.6231086,2.0031446,0.455161
 7,-1.4721108,-1.0760307,-1.3375221,-1.0928951,0.4551687,1.2219927,-0.6
 765875,1.0892879,0.3427595,0.5010657,-1.8970538,-0.8718859,1.8376368,3
 .2997601,-1.6758471,0.9381565,1.8114722,-0.5658352,1.3220042,-1.221301
 1,1.5797367,-1.7811231,-0.5658292,1.4136771,-0.9366016,0.9449464,-0.42
 60785,0.645388,1.7036055,-1.206954,1.8376366\HyperPolar=1.4601472,5.10
 83761,-1.4599334,-5.1087601,-2.9554246,-0.000169,-2.9554023,0.0000623,
 -0.0000662,-0.7393802\PG=C03 [C3(C1N1),X(H6)]\NImag=0\\0.65500524,-0.0
 0000020,0.65500517,-0.00000008,-0.00000011,0.43045089,-0.05610048,-0.0
 2485985,-0.00807913,0.05055538,-0.02485986,-0.32094302,-0.08679332,0.0
 2644526,0.33228672,-0.00669471,-0.07191516,-0.07479737,0.00825066,0.08
 863884,0.08943359,-0.23320312,0.12711012,-0.07112567,0.00507964,-0.003
 27029,0.00298638,0.23895162,0.12711015,-0.14384045,0.05039344,0.023688
 71,-0.01244149,0.01023785,-0.13521588,0.14389049,-0.05893305,0.0417553
 5,-0.07479742,0.00971431,-0.00440067,0.00537725,0.07263816,-0.05146470
 ,0.08943359,-0.27626159,-0.10225013,0.07920480,0.00078023,0.00078802,-
 0.00104606,-0.01690265,-0.01099723,0.00737305,0.28475616,-0.10225021,-
 0.10078185,0.03639993,-0.02617098,-0.00814208,0.01061317,0.01596177,0.
 00954079,-0.00770521,0.10877062,0.09808595,0.06562768,0.03015977,-0.07
 479743,-0.01035943,-0.00253265,0.00537725,-0.00866824,-0.00621250,0.00
 537725,-0.08088882,-0.03717414,0.08943359,-0.10115305,0.00000004,0.000
 00019,-0.00089015,0.00079386,-0.00349940,0.00476581,-0.00405932,-0.030
 82082,0.00614091,0.00326550,0.03432017,0.74614566,0.00000014,-0.101152
 81,0.00000024,0.00079385,0.00756775,-0.03760921,-0.00405938,0.00191186
 ,0.02183514,0.00326543,0.00053683,0.01577403,-0.00000005,0.74614566,0.
 00000038,0.00000025,-0.17157043,0.00039338,0.00422846,-0.02080028,0.00
 346527,-0.00245498,-0.02080023,-0.00385885,-0.00177364,-0.02080019,-0.
 00000013,-0.00000009,0.54966956,0.00026852,0.00068253,-0.00018404,0.00
 044328,0.00004539,0.00017840,-0.00017864,-0.00056204,-0.00078818,-0.00
 004076,0.00068560,0.00087111,-0.07110737,-0.02763704,-0.01037044,0.063
 33287,0.00068243,0.00754012,-0.00197847,0.00004540,0.00092673,0.001916
 98,-0.00004835,0.00061734,0.00052279,0.00017199,0.00047953,0.00036827,
 -0.02763697,-0.36556549,-0.11145408,0.02998795,0.38283605,-0.00313988,
 -0.03374472,-0.01149613,0.00019984,0.00214741,-0.00692031,-0.00084873,
 -0.00007907,0.00116476,0.00081950,-0.00023407,0.00116510,-0.01110758,-
 0.11937695,-0.10523277,0.01129396,0.12138220,0.10792755,0.00631330,0.0
 0280745,0.00180535,0.00015404,0.00024042,-0.00005866,0.00072081,0.0002
 6770,-0.00075448,0.00084518,0.00018664,-0.00174936,-0.31588536,-0.1136
 8556,0.10170737,0.00086772,0.00033304,-0.00103047,0.32893059,0.0028074
 0,0.00149535,0.00082979,0.00075411,0.00028466,-0.00094398,-0.00024591,
 -0.00028203,0.00057027,0.00018665,0.00052483,-0.00080399,-0.11368563,-
 0.12078755,0.04674601,-0.03308121,-0.01064381,0.01517815,0.12335496,0.
 11723834,0.03079370,0.01415318,-0.01149608,0.00049284,-0.00069549,0.00
 116476,-0.00020704,0.00082675,0.00116510,-0.00195963,-0.00090064,-0.00
 692031,0.10893725,0.05006898,-0.10523284,-0.01466067,-0.00406102,0.006
 69591,-0.11076705,-0.05091025,0.10792755,0.00513113,-0.00348995,-0.001
 62135,-0.00002189,-0.00018288,-0.00011662,0.00076655,-0.00023204,0.001
 57096,0.00068265,-0.00044892,0.00084684,-0.26801659,0.14132259,-0.0913
 3686,0.00641444,-0.00353545,0.00381339,-0.02194630,0.01990953,-0.01262
 942,0.27698993,-0.00348996,0.00267751,0.00114856,-0.00069650,0.0004606
 6,-0.00093853,-0.00023203,0.00060345,-0.00111299,0.00006477,-0.0002439
 5,0.00042119,0.14132262,-0.16865627,0.06470815,0.02987880,-0.01619054,
 0.01472702,-0.01350472,0.01217020,-0.00848149,-0.15334291,0.16917899,-
 0.02765388,0.01959152,-0.01149605,-0.00061247,-0.00059267,0.00116510,0
 .00175979,-0.00124677,-0.00692031,0.00035589,0.00077456,0.00116476,-0.
 09782965,0.06930793,-0.10523283,0.01365990,-0.00669666,0.00669591,0.01
 084728,-0.01066600,0.00669591,0.09947309,-0.07047196,0.10792755\\0.,0.
 ,0.00000001,-0.00000002,0.,0.,0.00000001,0.00000002,0.,0.,-0.00000002,
 0.,0.,0.,0.,0.00000002,0.,0.,0.,0.00000002,0.,-0.00000001,-0.00000001,
 0.\\\@


 PERICLES, SOPHOCLES,
 PELOPONESIAN WAR,
 FRENCH VERBS, LATIN VERBS
 H2SO4.
 Job cpu time:  0 days  0 hours  6 minutes 26.5 seconds.
 File lengths (MBytes):  RWF=      5 Int=      0 D2E=      0 Chk=      1 Scr=      1
 Normal termination of Gaussian 09 at Thu Feb 26 00:43:21 2015.
