 Entering Gaussian System, Link 0=g03
 Input=MA_PBE1PBE_AUG-cc-pVQZ.com
 Output=MA_PBE1PBE_AUG-cc-pVQZ.log
 Initial command:
 /apps/gaussian/g09_c01/g09/l1.exe /tmp/pbs.8910301.cx1b/Gau-12130.inp -scrdir=/tmp/pbs.8910301.cx1b/
 Entering Link 1 = /apps/gaussian/g09_c01/g09/l1.exe PID=     12136.
  
 Copyright (c) 1988,1990,1992,1993,1995,1998,2003,2009,2011,
            Gaussian, Inc.  All Rights Reserved.
  
 This is part of the Gaussian(R) 09 program.  It is based on
 the Gaussian(R) 03 system (copyright 2003, Gaussian, Inc.),
 the Gaussian(R) 98 system (copyright 1998, Gaussian, Inc.),
 the Gaussian(R) 94 system (copyright 1995, Gaussian, Inc.),
 the Gaussian 92(TM) system (copyright 1992, Gaussian, Inc.),
 the Gaussian 90(TM) system (copyright 1990, Gaussian, Inc.),
 the Gaussian 88(TM) system (copyright 1988, Gaussian, Inc.),
 the Gaussian 86(TM) system (copyright 1986, Carnegie Mellon
 University), and the Gaussian 82(TM) system (copyright 1983,
 Carnegie Mellon University). Gaussian is a federally registered
 trademark of Gaussian, Inc.
  
 This software contains proprietary and confidential information,
 including trade secrets, belonging to Gaussian, Inc.
  
 This software is provided under written license and may be
 used, copied, transmitted, or stored only in accord with that
 written license.
  
 The following legend is applicable only to US Government
 contracts under FAR:
  
                    RESTRICTED RIGHTS LEGEND
  
 Use, reproduction and disclosure by the US Government is
 subject to restrictions as set forth in subparagraphs (a)
 and (c) of the Commercial Computer Software - Restricted
 Rights clause in FAR 52.227-19.
  
 Gaussian, Inc.
 340 Quinnipiac St., Bldg. 40, Wallingford CT 06492
  
  
 ---------------------------------------------------------------
 Warning -- This program may not be used in any manner that
 competes with the business of Gaussian, Inc. or will provide
 assistance to any competitor of Gaussian, Inc.  The licensee
 of this program is prohibited from giving any competitor of
 Gaussian, Inc. access to this program.  By using this program,
 the user acknowledges that Gaussian, Inc. is engaged in the
 business of creating and licensing software in the field of
 computational chemistry and represents and warrants to the
 licensee that it is not a competitor of Gaussian, Inc. and that
 it will not use this program in any manner prohibited above.
 ---------------------------------------------------------------
  

 Cite this work as:
 Gaussian 09, Revision C.01,
 M. J. Frisch, G. W. Trucks, H. B. Schlegel, G. E. Scuseria, 
 M. A. Robb, J. R. Cheeseman, G. Scalmani, V. Barone, B. Mennucci, 
 G. A. Petersson, H. Nakatsuji, M. Caricato, X. Li, H. P. Hratchian, 
 A. F. Izmaylov, J. Bloino, G. Zheng, J. L. Sonnenberg, M. Hada, 
 M. Ehara, K. Toyota, R. Fukuda, J. Hasegawa, M. Ishida, T. Nakajima, 
 Y. Honda, O. Kitao, H. Nakai, T. Vreven, J. A. Montgomery, Jr., 
 J. E. Peralta, F. Ogliaro, M. Bearpark, J. J. Heyd, E. Brothers, 
 K. N. Kudin, V. N. Staroverov, T. Keith, R. Kobayashi, J. Normand, 
 K. Raghavachari, A. Rendell, J. C. Burant, S. S. Iyengar, J. Tomasi, 
 M. Cossi, N. Rega, J. M. Millam, M. Klene, J. E. Knox, J. B. Cross, 
 V. Bakken, C. Adamo, J. Jaramillo, R. Gomperts, R. E. Stratmann, 
 O. Yazyev, A. J. Austin, R. Cammi, C. Pomelli, J. W. Ochterski, 
 R. L. Martin, K. Morokuma, V. G. Zakrzewski, G. A. Voth, 
 P. Salvador, J. J. Dannenberg, S. Dapprich, A. D. Daniels, 
 O. Farkas, J. B. Foresman, J. V. Ortiz, J. Cioslowski, 
 and D. J. Fox, Gaussian, Inc., Wallingford CT, 2010.
 
 ******************************************
 Gaussian 09:  EM64L-G09RevC.01 23-Sep-2011
                26-Feb-2015 
 ******************************************
 %Chk=MA_PBE1PBE_AUG-cc-pVQZ.chk
 %Mem=8Gb
 %nproc=8
 Will use up to    8 processors via shared memory.
 ----------------------------------------------------------------------
 #p opt(VeryTight,CalcAll,Raman) Integral(Grid=UltraFine) PBE1PBE/AUG-c
 c-pVQZ
 ----------------------------------------------------------------------
 1/7=1,10=4,14=-1,18=20,19=15,26=3,38=1/1,3;
 2/9=110,12=2,17=6,18=5,40=1/2;
 3/5=16,6=2,7=10,11=2,16=1,25=1,30=1,71=2,74=-13,75=-5/1,2,3;
 4//1;
 5/5=2,38=5/2;
 8/6=4,10=90,11=11/1;
 10/13=10,15=4/2;
 11/6=3,8=1,9=11,15=111,16=1/1,2,10;
 10/6=1/2;
 6/7=2,8=2,9=2,10=2,18=1,28=1/1;
 7/10=1,25=1/1,2,3,16;
 1/7=1,10=4,14=-1,18=20,19=15/3(3);
 2/9=110/2;
 7/8=1,9=1,25=1,44=-1/16;
 99//99;
 2/9=110/2;
 3/5=16,6=2,7=10,11=2,16=1,25=1,30=1,71=2,74=-13,75=-5/1,2,3;
 4/5=5,16=3/1;
 5/5=2,38=5/2;
 8/6=4,10=90,11=11/1;
 10/13=10,15=4/2;
 11/6=3,8=1,9=11,15=111,16=1/1,2,10;
 10/6=1/2;
 7/10=1,25=1/1,2,3,16;
 1/7=1,10=4,14=-1,18=20,19=15/3(-9);
 2/9=110/2;
 6/7=2,8=2,9=2,10=2,18=1,19=2,28=1/1;
 7/8=1,9=1,25=1,44=-1/16;
 99//99;
 Leave Link    1 at Thu Feb 26 00:52:46 2015, MaxMem= 1073741824 cpu:       0.3
 (Enter /apps/gaussian/g09_c01/g09/l101.exe)
 ----------------------------------------------
 Autjob by noodles.sh | Great noodly basis sets
 ----------------------------------------------
 Charge =  1 Multiplicity = 1
 Symbolic Z-Matrix:
 C                     0.        0.       -0.80446 
 H                    -0.09587  -1.03096  -1.1445 
 H                    -0.8449    0.59851  -1.1445 
 H                     0.94078   0.43245  -1.1445 
 N                     0.        0.        0.71256 
 H                     0.08865   0.95193   1.09076 
 H                    -0.86872  -0.39919   1.09076 
 H                     0.78007  -0.55274   1.09076 
 
 NAtoms=      8 NQM=        0 NQMF=       0 NMMI=      8 NMMIF=      0
                NMic=       0 NMicF=      0.
                    Isotopes and Nuclear Properties:
 (Nuclear quadrupole moments (NQMom) in fm**2, nuclear magnetic moments (NMagM)
  in nuclear magnetons)

  Atom         1           2           3           4           5           6           7           8
 IAtWgt=          12           1           1           1          14           1           1           1
 AtmWgt=  12.0000000   1.0078250   1.0078250   1.0078250  14.0030740   1.0078250   1.0078250   1.0078250
 NucSpn=           0           1           1           1           2           1           1           1
 AtZEff=   0.0000000   0.0000000   0.0000000   0.0000000   0.0000000   0.0000000   0.0000000   0.0000000
 NQMom=    0.0000000   0.0000000   0.0000000   0.0000000   2.0440000   0.0000000   0.0000000   0.0000000
 NMagM=    0.0000000   2.7928460   2.7928460   2.7928460   0.4037610   2.7928460   2.7928460   2.7928460
 Leave Link  101 at Thu Feb 26 00:52:47 2015, MaxMem= 1073741824 cpu:       1.0
 (Enter /apps/gaussian/g09_c01/g09/l103.exe)

 GradGradGradGradGradGradGradGradGradGradGradGradGradGradGradGradGradGrad
 Berny optimization.
 Initialization pass.
                           ----------------------------
                           !    Initial Parameters    !
                           ! (Angstroms and Degrees)  !
 --------------------------                            --------------------------
 ! Name  Definition              Value          Derivative Info.                !
 --------------------------------------------------------------------------------
 ! R1    R(1,2)                  1.0898         calculate D2E/DX2 analytically  !
 ! R2    R(1,3)                  1.0898         calculate D2E/DX2 analytically  !
 ! R3    R(1,4)                  1.0898         calculate D2E/DX2 analytically  !
 ! R4    R(1,5)                  1.517          calculate D2E/DX2 analytically  !
 ! R5    R(5,6)                  1.0281         calculate D2E/DX2 analytically  !
 ! R6    R(5,7)                  1.0281         calculate D2E/DX2 analytically  !
 ! R7    R(5,8)                  1.0281         calculate D2E/DX2 analytically  !
 ! A1    A(2,1,3)              110.7303         calculate D2E/DX2 analytically  !
 ! A2    A(2,1,4)              110.7304         calculate D2E/DX2 analytically  !
 ! A3    A(2,1,5)              108.1807         calculate D2E/DX2 analytically  !
 ! A4    A(3,1,4)              110.7303         calculate D2E/DX2 analytically  !
 ! A5    A(3,1,5)              108.1807         calculate D2E/DX2 analytically  !
 ! A6    A(4,1,5)              108.1807         calculate D2E/DX2 analytically  !
 ! A7    A(1,5,6)              111.5829         calculate D2E/DX2 analytically  !
 ! A8    A(1,5,7)              111.583          calculate D2E/DX2 analytically  !
 ! A9    A(1,5,8)              111.583          calculate D2E/DX2 analytically  !
 ! A10   A(6,5,7)              107.2794         calculate D2E/DX2 analytically  !
 ! A11   A(6,5,8)              107.2794         calculate D2E/DX2 analytically  !
 ! A12   A(7,5,8)              107.2794         calculate D2E/DX2 analytically  !
 ! D1    D(2,1,5,6)            179.9926         calculate D2E/DX2 analytically  !
 ! D2    D(2,1,5,7)            -60.0075         calculate D2E/DX2 analytically  !
 ! D3    D(2,1,5,8)             59.9926         calculate D2E/DX2 analytically  !
 ! D4    D(3,1,5,6)            -60.0075         calculate D2E/DX2 analytically  !
 ! D5    D(3,1,5,7)             59.9925         calculate D2E/DX2 analytically  !
 ! D6    D(3,1,5,8)            179.9926         calculate D2E/DX2 analytically  !
 ! D7    D(4,1,5,6)             59.9925         calculate D2E/DX2 analytically  !
 ! D8    D(4,1,5,7)            179.9925         calculate D2E/DX2 analytically  !
 ! D9    D(4,1,5,8)            -60.0075         calculate D2E/DX2 analytically  !
 --------------------------------------------------------------------------------
 Trust Radius=3.00D-01 FncErr=1.00D-07 GrdErr=1.00D-06
 Number of steps in this run=     38 maximum allowed number of steps=    100.
 GradGradGradGradGradGradGradGradGradGradGradGradGradGradGradGradGradGrad

 Leave Link  103 at Thu Feb 26 00:52:47 2015, MaxMem= 1073741824 cpu:       0.0
 (Enter /apps/gaussian/g09_c01/g09/l202.exe)
                          Input orientation:                          
 ---------------------------------------------------------------------
 Center     Atomic      Atomic             Coordinates (Angstroms)
 Number     Number       Type             X           Y           Z
 ---------------------------------------------------------------------
      1          6           0        0.000000    0.000000   -0.804455
      2          1           0       -0.095874   -1.030964   -1.144495
      3          1           0       -0.844904    0.598511   -1.144495
      4          1           0        0.940777    0.432453   -1.144495
      5          7           0        0.000000    0.000000    0.712562
      6          1           0        0.088649    0.951929    1.090759
      7          1           0       -0.868719   -0.399192    1.090759
      8          1           0        0.780070   -0.552736    1.090759
 ---------------------------------------------------------------------
                    Distance matrix (angstroms):
                    1          2          3          4          5
     1  C    0.000000
     2  H    1.089819   0.000000
     3  H    1.089819   1.793386   0.000000
     4  H    1.089818   1.793386   1.793386   0.000000
     5  N    1.517017   2.126203   2.126203   2.126203   0.000000
     6  H    2.122702   2.993706   2.448017   2.447925   1.028134
     7  H    2.122702   2.448017   2.447925   2.993705   1.028134
     8  H    2.122702   2.447926   2.993705   2.448016   1.028134
                    6          7          8
     6  H    0.000000
     7  H    1.655923   0.000000
     8  H    1.655923   1.655923   0.000000
 Stoichiometry    CH6N(1+)
 Framework group  C3[C3(CN),X(H6)]
 Deg. of freedom     6
 Full point group                 C3      NOp   3
 Largest Abelian subgroup         C1      NOp   1
 Largest concise Abelian subgroup C1      NOp   1
                         Standard orientation:                         
 ---------------------------------------------------------------------
 Center     Atomic      Atomic             Coordinates (Angstroms)
 Number     Number       Type             X           Y           Z
 ---------------------------------------------------------------------
      1          6           0        0.000000    0.000000   -0.804455
      2          1           0        1.030964   -0.095874   -1.144495
      3          1           0       -0.598511   -0.844904   -1.144495
      4          1           0       -0.432453    0.940778   -1.144495
      5          7           0        0.000000    0.000000    0.712562
      6          1           0       -0.951929    0.088649    1.090759
      7          1           0        0.399192   -0.868719    1.090759
      8          1           0        0.552737    0.780070    1.090759
 ---------------------------------------------------------------------
 Rotational constants (GHZ):     84.1605103     19.8694623     19.8694623
 Leave Link  202 at Thu Feb 26 00:52:47 2015, MaxMem= 1073741824 cpu:       0.0
 (Enter /apps/gaussian/g09_c01/g09/l301.exe)
 Standard basis: Aug-CC-pVQZ (5D, 7F)
 Ernie: Thresh=  0.10000D-02 Tol=  0.10000D-05 Strict=F.
 Ernie:  6 primitive shells out of 172 were deleted.
 There are   436 symmetry adapted basis functions of A   symmetry.
 Integral buffers will be    131072 words long.
 Raffenetti 2 integral format.
 Two-electron integral symmetry is turned on.
   436 basis functions,   590 primitive gaussians,   540 cartesian basis functions
     9 alpha electrons        9 beta electrons
       nuclear repulsion energy        47.5846100594 Hartrees.
 IExCor= 1009 DFT=T Ex+Corr=PBE1PBE ExCW=0 ScaHFX=  0.250000
 ScaDFX=  0.750000  0.750000  1.000000  1.000000 ScalE2=  1.000000  1.000000
 IRadAn=      5 IRanWt=     -1 IRanGd=            0 ICorTp=0
 NAtoms=    8 NActive=    8 NUniq=    4 SFac= 4.00D+00 NAtFMM=   60 NAOKFM=F Big=F
 Leave Link  301 at Thu Feb 26 00:52:47 2015, MaxMem= 1073741824 cpu:       0.3
 (Enter /apps/gaussian/g09_c01/g09/l302.exe)
 NPDir=0 NMtPBC=     1 NCelOv=     1 NCel=       1 NClECP=     1 NCelD=      1
         NCelK=      1 NCelE2=     1 NClLst=     1 CellRange=     0.0.
 One-electron integrals computed using PRISM.
 NBasis=   436 RedAO= T  NBF=   436
 NBsUse=   436 1.00D-06 NBFU=   436
 Precomputing XC quadrature grid using
 IXCGrd= 2 IRadAn=           5 IRanWt=          -1 IRanGd=           0 AccXCQ= 0.00D+00.
 NRdTot=     687 NPtTot=      184910 NUsed=      189836 NTot=      189868
 NSgBfM=   540   540   540   540   540 NAtAll=     8     8.
 Leave Link  302 at Thu Feb 26 00:52:47 2015, MaxMem= 1073741824 cpu:       3.7
 (Enter /apps/gaussian/g09_c01/g09/l303.exe)
 DipDrv:  MaxL=1.
 Leave Link  303 at Thu Feb 26 00:52:47 2015, MaxMem= 1073741824 cpu:       0.5
 (Enter /apps/gaussian/g09_c01/g09/l401.exe)
 Harris functional with IExCor= 1009 diagonalized for initial guess.
 ExpMin= 2.36D-02 ExpMax= 4.58D+04 ExpMxC= 4.42D+02 IAcc=3 IRadAn=         5 AccDes= 0.00D+00
 HarFok:  IExCor= 1009 AccDes= 0.00D+00 IRadAn=         5 IDoV= 1
 ScaDFX=  1.000000  1.000000  1.000000  1.000000
 FoFCou: FMM=F IPFlag=           0 FMFlag=      100000 FMFlg1=           0
         NFxFlg=           0 DoJE=T BraDBF=F KetDBF=T FulRan=T
         Omega=  0.000000  0.000000  1.000000  0.000000  0.000000 ICntrl=     500 IOpCl=  0
         NMat0=    1 NMatS0=    1 NMatT0=    0 NMatD0=    1 NMtDS0=    0 NMtDT0=    0
         I1Cent=           4 NGrid=           0.
 Petite list used in FoFCou.
 DSYEVD returned Info=         873 IAlg= 4 N=   436 NDim=   436 NE2=     2461365 trying DSYEV.
 Harris En= -96.2358530816392    
 Initial guess orbital symmetries:
       Occupied  (A) (A) (A) (A) (E) (E) (A) (E) (E)
       Virtual   (A) (A) (E) (E) (A) (E) (E) (A) (E) (E) (A) (E)
                 (E) (A) (E) (E) (E) (E) (A) (E) (E) (A) (E) (E)
                 (A) (A) (E) (E) (A) (A) (E) (E) (E) (E) (A) (E)
                 (E) (A) (A) (E) (E) (A) (E) (E) (E) (E) (A) (E)
                 (E) (A) (E) (E) (A) (A) (E) (E) (A) (E) (E) (A)
                 (E) (E) (E) (E) (A) (A) (A) (E) (E) (A) (E) (E)
                 (E) (E) (A) (E) (E) (A) (E) (E) (E) (E) (A) (E)
                 (E) (A) (E) (E) (A) (A) (E) (E) (A) (E) (E) (E)
                 (E) (A) (A) (E) (E) (E) (E) (A) (E) (E) (A) (A)
                 (E) (E) (A) (E) (E) (A) (E) (E) (A) (E) (E) (A)
                 (E) (E) (A) (E) (E) (A) (A) (E) (E) (A) (E) (E)
                 (A) (E) (E) (E) (E) (E) (E) (A) (E) (E) (A) (E)
                 (E) (A) (A) (A) (E) (E) (E) (E) (A) (E) (E) (A)
                 (E) (E) (A) (A) (E) (E) (E) (E) (A) (A) (E) (E)
                 (A) (E) (E) (A) (A) (E) (E) (E) (E) (A) (E) (E)
                 (A) (E) (E) (A) (E) (E) (E) (E) (A) (E) (E) (A)
                 (E) (E) (A) (A) (E) (E) (A) (E) (E) (A) (E) (E)
                 (A) (E) (E) (A) (A) (E) (E) (A) (E) (E) (A) (E)
                 (E) (A) (E) (E) (E) (E) (A) (E) (E) (A) (E) (E)
                 (A) (E) (E) (A) (A) (E) (E) (A) (E) (E) (A) (E)
                 (E) (A) (A) (E) (E) (E) (E) (A) (E) (E) (A) (E)
                 (E) (E) (E) (A) (A) (E) (E) (E) (E) (A) (E) (E)
                 (A) (E) (E) (A) (E) (E) (A) (A) (E) (E) (E) (E)
                 (A) (E) (E) (A) (A) (E) (E) (A) (E) (E) (A) (E)
                 (E) (A) (A) (E) (E) (A) (E) (E) (E) (E) (A) (A)
                 (E) (E) (E) (E) (E) (E) (A) (A) (A) (A) (E) (E)
                 (E) (E) (A) (E) (E) (E) (E) (A) (A) (A) (E) (E)
                 (E) (E) (A) (E) (E) (A) (E) (E) (A) (E) (E) (E)
                 (E) (A) (A) (E) (E) (E) (E) (E) (E) (A) (E) (E)
                 (A) (A) (E) (E) (A) (A) (A) (A) (E) (E) (E) (E)
                 (A) (E) (E) (E) (E) (E) (E) (E) (E) (A) (A) (A)
                 (E) (E) (E) (E) (E) (E) (A) (A) (E) (E) (A) (E)
                 (E) (A) (A) (E) (E) (E) (E) (E) (E) (E) (E) (A)
                 (A) (A) (A) (E) (E) (E) (E) (A) (E) (E) (A) (E)
                 (E) (A) (A) (E) (E) (A) (E) (E) (A) (E) (E) (E)
                 (E) (A) (E) (E) (A) (A) (A)
 The electronic state of the initial guess is 1-A.
 Leave Link  401 at Thu Feb 26 00:52:49 2015, MaxMem= 1073741824 cpu:      14.6
 (Enter /apps/gaussian/g09_c01/g09/l502.exe)
 Closed shell SCF:
 Requested convergence on RMS density matrix=1.00D-08 within 128 cycles.
 Requested convergence on MAX density matrix=1.00D-06.
 Requested convergence on             energy=1.00D-06.
 No special actions if energy rises.
 Using DIIS extrapolation, IDIIS=  1040.
 Integral symmetry usage will be decided dynamically.
       189751 words used for storage of precomputed grid.
 IEnd=     1091081 IEndB=     1091081 NGot=  1073741824 MDV=  1072959524
 LenX=  1072959524 LenY=  1072667384
 Fock matrices will be formed incrementally for  20 cycles.

 Cycle   1  Pass 1  IDiag  1:
 FoFCou: FMM=F IPFlag=           0 FMFlag=      100000 FMFlg1=           0
         NFxFlg=           0 DoJE=F BraDBF=F KetDBF=F FulRan=T
         Omega=  0.000000  0.000000  1.000000  0.000000  0.000000 ICntrl=       0 IOpCl=  0
         NMat0=    1 NMatS0=    1 NMatT0=    0 NMatD0=    1 NMtDS0=    0 NMtDT0=    0
         I1Cent=           0 NGrid=           0.
 Petite list used in FoFCou.
 E= -96.1034143911934    
 DIIS: error= 1.89D-02 at cycle   1 NSaved=   1.
 NSaved= 1 IEnMin= 1 EnMin= -96.1034143911934     IErMin= 1 ErrMin= 1.89D-02
 ErrMax= 1.89D-02 EMaxC= 1.00D-01 BMatC= 5.09D-02 BMatP= 5.09D-02
 IDIUse=3 WtCom= 8.11D-01 WtEn= 1.89D-01
 Coeff-Com:  0.100D+01
 Coeff-En:   0.100D+01
 Coeff:      0.100D+01
 Gap=     0.392 Goal=   None    Shift=    0.000
 DSYEVD returned Info=         873 IAlg= 4 N=   436 NDim=   436 NE2=     2460245 trying DSYEV.
 GapD=    0.392 DampG=1.000 DampE=0.500 DampFc=0.5000 IDamp=-1.
 Damping current iteration by 5.00D-01
 RMSDP=6.52D-04 MaxDP=5.36D-02              OVMax= 1.05D-01

 Cycle   2  Pass 1  IDiag  1:
 RMSU=  2.27D-04    CP:  9.80D-01
 E= -96.1229862599795     Delta-E=       -0.019571868786 Rises=F Damp=T
 DIIS: error= 5.27D-03 at cycle   2 NSaved=   2.
 NSaved= 2 IEnMin= 2 EnMin= -96.1229862599795     IErMin= 2 ErrMin= 5.27D-03
 ErrMax= 5.27D-03 EMaxC= 1.00D-01 BMatC= 4.58D-03 BMatP= 5.09D-02
 IDIUse=3 WtCom= 9.47D-01 WtEn= 5.27D-02
 Coeff-Com: -0.147D+00 0.115D+01
 Coeff-En:   0.000D+00 0.100D+01
 Coeff:     -0.140D+00 0.114D+01
 Gap=     0.437 Goal=   None    Shift=    0.000
 DSYEVD returned Info=         873 IAlg= 4 N=   436 NDim=   436 NE2=     2460245 trying DSYEV.
 RMSDP=2.57D-04 MaxDP=2.76D-02 DE=-1.96D-02 OVMax= 5.32D-02

 Cycle   3  Pass 1  IDiag  1:
 RMSU=  1.42D-04    CP:  9.86D-01  1.50D+00
 E= -96.1411339961962     Delta-E=       -0.018147736217 Rises=F Damp=F
 DIIS: error= 2.57D-03 at cycle   3 NSaved=   3.
 NSaved= 3 IEnMin= 3 EnMin= -96.1411339961962     IErMin= 3 ErrMin= 2.57D-03
 ErrMax= 2.57D-03 EMaxC= 1.00D-01 BMatC= 9.02D-04 BMatP= 4.58D-03
 IDIUse=3 WtCom= 9.74D-01 WtEn= 2.57D-02
 Coeff-Com: -0.120D+00 0.345D+00 0.776D+00
 Coeff-En:   0.000D+00 0.000D+00 0.100D+01
 Coeff:     -0.117D+00 0.336D+00 0.781D+00
 Gap=     0.434 Goal=   None    Shift=    0.000
 DSYEVD returned Info=         873 IAlg= 4 N=   436 NDim=   436 NE2=     2460245 trying DSYEV.
 RMSDP=4.21D-05 MaxDP=3.26D-03 DE=-1.81D-02 OVMax= 8.91D-03

 Cycle   4  Pass 1  IDiag  1:
 RMSU=  1.74D-05    CP:  9.82D-01  1.57D+00  8.84D-01
 E= -96.1419246497762     Delta-E=       -0.000790653580 Rises=F Damp=F
 DIIS: error= 6.05D-04 at cycle   4 NSaved=   4.
 NSaved= 4 IEnMin= 4 EnMin= -96.1419246497762     IErMin= 4 ErrMin= 6.05D-04
 ErrMax= 6.05D-04 EMaxC= 1.00D-01 BMatC= 3.49D-05 BMatP= 9.02D-04
 IDIUse=3 WtCom= 9.94D-01 WtEn= 6.05D-03
 Coeff-Com: -0.289D-01 0.634D-01 0.241D+00 0.724D+00
 Coeff-En:   0.000D+00 0.000D+00 0.000D+00 0.100D+01
 Coeff:     -0.287D-01 0.630D-01 0.240D+00 0.726D+00
 Gap=     0.433 Goal=   None    Shift=    0.000
 DSYEVD returned Info=       96139 IAlg= 4 N=   436 NDim=   436 NE2=     2460245 trying DSYEV.
 RMSDP=8.29D-06 MaxDP=7.94D-04 DE=-7.91D-04 OVMax= 2.31D-03

 Cycle   5  Pass 1  IDiag  1:
 RMSU=  4.04D-06    CP:  9.82D-01  1.58D+00  9.04D-01  8.73D-01
 E= -96.1419501111930     Delta-E=       -0.000025461417 Rises=F Damp=F
 DIIS: error= 2.32D-04 at cycle   5 NSaved=   5.
 NSaved= 5 IEnMin= 5 EnMin= -96.1419501111930     IErMin= 5 ErrMin= 2.32D-04
 ErrMax= 2.32D-04 EMaxC= 1.00D-01 BMatC= 5.40D-06 BMatP= 3.49D-05
 IDIUse=3 WtCom= 9.98D-01 WtEn= 2.32D-03
 Coeff-Com: -0.117D-01 0.216D-01 0.105D+00 0.376D+00 0.510D+00
 Coeff-En:   0.000D+00 0.000D+00 0.000D+00 0.000D+00 0.100D+01
 Coeff:     -0.117D-01 0.216D-01 0.105D+00 0.375D+00 0.511D+00
 Gap=     0.433 Goal=   None    Shift=    0.000
 DSYEVD returned Info=         873 IAlg= 4 N=   436 NDim=   436 NE2=     2460245 trying DSYEV.
 RMSDP=2.37D-06 MaxDP=1.79D-04 DE=-2.55D-05 OVMax= 5.98D-04

 Cycle   6  Pass 1  IDiag  1:
 RMSU=  1.29D-06    CP:  9.82D-01  1.58D+00  9.06D-01  8.81D-01  7.50D-01
 E= -96.1419540541144     Delta-E=       -0.000003942921 Rises=F Damp=F
 DIIS: error= 2.71D-05 at cycle   6 NSaved=   6.
 NSaved= 6 IEnMin= 6 EnMin= -96.1419540541144     IErMin= 6 ErrMin= 2.71D-05
 ErrMax= 2.71D-05 EMaxC= 1.00D-01 BMatC= 6.61D-08 BMatP= 5.40D-06
 IDIUse=1 WtCom= 1.00D+00 WtEn= 0.00D+00
 Coeff-Com:  0.285D-03-0.925D-03 0.364D-03 0.786D-02 0.102D+00 0.891D+00
 Coeff:      0.285D-03-0.925D-03 0.364D-03 0.786D-02 0.102D+00 0.891D+00
 Gap=     0.433 Goal=   None    Shift=    0.000
 DSYEVD returned Info=       96139 IAlg= 4 N=   436 NDim=   436 NE2=     2460245 trying DSYEV.
 RMSDP=4.94D-07 MaxDP=5.73D-05 DE=-3.94D-06 OVMax= 1.06D-04

 Cycle   7  Pass 1  IDiag  1:
 RMSU=  1.65D-07    CP:  9.82D-01  1.58D+00  9.07D-01  8.84D-01  7.96D-01
                    CP:  9.85D-01
 E= -96.1419541088425     Delta-E=       -0.000000054728 Rises=F Damp=F
 DIIS: error= 2.92D-06 at cycle   7 NSaved=   7.
 NSaved= 7 IEnMin= 7 EnMin= -96.1419541088425     IErMin= 7 ErrMin= 2.92D-06
 ErrMax= 2.92D-06 EMaxC= 1.00D-01 BMatC= 7.53D-10 BMatP= 6.61D-08
 IDIUse=1 WtCom= 1.00D+00 WtEn= 0.00D+00
 Coeff-Com:  0.186D-03-0.401D-03-0.115D-02-0.313D-02 0.320D-02 0.136D+00
 Coeff-Com:  0.866D+00
 Coeff:      0.186D-03-0.401D-03-0.115D-02-0.313D-02 0.320D-02 0.136D+00
 Coeff:      0.866D+00
 Gap=     0.433 Goal=   None    Shift=    0.000
 DSYEVD returned Info=         873 IAlg= 4 N=   436 NDim=   436 NE2=     2460245 trying DSYEV.
 RMSDP=6.43D-08 MaxDP=9.67D-06 DE=-5.47D-08 OVMax= 8.32D-06

 Cycle   8  Pass 1  IDiag  1:
 RMSU=  2.09D-08    CP:  9.82D-01  1.58D+00  9.07D-01  8.84D-01  7.99D-01
                    CP:  1.01D+00  9.95D-01
 E= -96.1419541096374     Delta-E=       -0.000000000795 Rises=F Damp=F
 DIIS: error= 3.29D-07 at cycle   8 NSaved=   8.
 NSaved= 8 IEnMin= 8 EnMin= -96.1419541096374     IErMin= 8 ErrMin= 3.29D-07
 ErrMax= 3.29D-07 EMaxC= 1.00D-01 BMatC= 1.16D-11 BMatP= 7.53D-10
 IDIUse=1 WtCom= 1.00D+00 WtEn= 0.00D+00
 Coeff-Com:  0.297D-04-0.578D-04-0.283D-03-0.912D-03-0.266D-02-0.509D-02
 Coeff-Com:  0.105D+00 0.904D+00
 Coeff:      0.297D-04-0.578D-04-0.283D-03-0.912D-03-0.266D-02-0.509D-02
 Coeff:      0.105D+00 0.904D+00
 Gap=     0.433 Goal=   None    Shift=    0.000
 DSYEVD returned Info=         873 IAlg= 4 N=   436 NDim=   436 NE2=     2460245 trying DSYEV.
 RMSDP=1.10D-08 MaxDP=1.52D-06 DE=-7.95D-10 OVMax= 1.40D-06

 Cycle   9  Pass 1  IDiag  1:
 RMSU=  3.23D-09    CP:  9.82D-01  1.58D+00  9.07D-01  8.85D-01  7.99D-01
                    CP:  1.01D+00  1.01D+00  1.04D+00
 E= -96.1419541096474     Delta-E=       -0.000000000010 Rises=F Damp=F
 DIIS: error= 3.18D-08 at cycle   9 NSaved=   9.
 NSaved= 9 IEnMin= 9 EnMin= -96.1419541096474     IErMin= 9 ErrMin= 3.18D-08
 ErrMax= 3.18D-08 EMaxC= 1.00D-01 BMatC= 9.06D-14 BMatP= 1.16D-11
 IDIUse=1 WtCom= 1.00D+00 WtEn= 0.00D+00
 Coeff-Com: -0.286D-05 0.590D-05 0.110D-04 0.511D-04-0.876D-04-0.207D-02
 Coeff-Com: -0.726D-02 0.320D-01 0.977D+00
 Coeff:     -0.286D-05 0.590D-05 0.110D-04 0.511D-04-0.876D-04-0.207D-02
 Coeff:     -0.726D-02 0.320D-01 0.977D+00
 Gap=     0.433 Goal=   None    Shift=    0.000
 RMSDP=6.94D-10 MaxDP=8.18D-08 DE=-1.00D-11 OVMax= 1.27D-07

 SCF Done:  E(RPBE1PBE) =  -96.1419541096     A.U. after    9 cycles
             Convg  =    0.6937D-09             -V/T =  2.0059
 KE= 9.557347770072D+01 PE=-3.132355617922D+02 EE= 7.393551992242D+01
 Leave Link  502 at Thu Feb 26 00:55:26 2015, MaxMem= 1073741824 cpu:    1251.0
 (Enter /apps/gaussian/g09_c01/g09/l801.exe)
 Range of M.O.s used for correlation:     1   436
 NBasis=   436 NAE=     9 NBE=     9 NFC=     0 NFV=     0
 NROrb=    436 NOA=     9 NOB=     9 NVA=   427 NVB=   427

 **** Warning!!: The largest alpha MO coefficient is  0.14425823D+03

 Leave Link  801 at Thu Feb 26 00:55:26 2015, MaxMem= 1073741824 cpu:       0.1
 (Enter /apps/gaussian/g09_c01/g09/l1002.exe)
 Minotr:  Closed shell wavefunction.
          Direct CPHF calculation.
          Differentiating once with respect to electric field.
                with respect to dipole field.
          Electric field/nuclear overlap derivatives assumed to be zero.
          Using symmetry in CPHF.
          Requested convergence is 1.0D-08 RMS, and 1.0D-07 maximum.
          Secondary convergence is 1.0D-12 RMS, and 1.0D-12 maximum.
          NewPWx=F KeepS1=T KeepF1=T KeepIn=T MapXYZ=F SortEE=F KeepMc=T.
          MDV=    1073741756 using IRadAn=       1.
 Generate precomputed XC quadrature information.
          Solving linear equations simultaneously, MaxMat=       0.
          There are     3 degrees of freedom in the 1st order CPHF.  IDoFFX=0.
      3 vectors produced by pass  0 Test12= 1.28D-13 3.33D-08 XBig12= 1.00D+01 1.32D+00.
 AX will form     3 AO Fock derivatives at one time.
 Integrals replicated using symmetry in FoFDir.
 MinBra= 0 MaxBra= 4 Meth= 1.
 IRaf=       0 NMat=   3 IRICut=       1 DoRegI=T DoRafI=F ISym2E= 2 JSym2E=2.
      3 vectors produced by pass  1 Test12= 1.28D-13 3.33D-08 XBig12= 6.15D-01 3.08D-01.
      3 vectors produced by pass  2 Test12= 1.28D-13 3.33D-08 XBig12= 1.32D-01 1.02D-01.
      3 vectors produced by pass  3 Test12= 1.28D-13 3.33D-08 XBig12= 5.87D-03 1.99D-02.
      3 vectors produced by pass  4 Test12= 1.28D-13 3.33D-08 XBig12= 1.14D-03 7.40D-03.
      3 vectors produced by pass  5 Test12= 1.28D-13 3.33D-08 XBig12= 3.82D-05 1.52D-03.
      3 vectors produced by pass  6 Test12= 1.28D-13 3.33D-08 XBig12= 1.65D-06 3.48D-04.
      3 vectors produced by pass  7 Test12= 1.28D-13 3.33D-08 XBig12= 2.90D-08 6.00D-05.
      1 vectors produced by pass  8 Test12= 1.28D-13 3.33D-08 XBig12= 1.12D-10 3.06D-06.
      1 vectors produced by pass  9 Test12= 1.28D-13 3.33D-08 XBig12= 2.45D-13 1.58D-07.
 Inverted reduced A of dimension    26 with in-core refinement.
 End of Minotr Frequency-dependent properties file   721 does not exist.
 End of Minotr Frequency-dependent properties file   722 does not exist.
 Leave Link 1002 at Thu Feb 26 01:07:34 2015, MaxMem= 1073741824 cpu:    5809.1
 (Enter /apps/gaussian/g09_c01/g09/l1101.exe)
 Using compressed storage, NAtomX=     8.
 Will process   9 centers per pass.
 Leave Link 1101 at Thu Feb 26 01:07:35 2015, MaxMem= 1073741824 cpu:       4.1
 (Enter /apps/gaussian/g09_c01/g09/l1102.exe)
 Symmetrizing basis deriv contribution to polar:
 IMax=3 JMax=2 DiffMx= 0.00D+00
 Leave Link 1102 at Thu Feb 26 01:07:35 2015, MaxMem= 1073741824 cpu:       0.5
 (Enter /apps/gaussian/g09_c01/g09/l1110.exe)
 Forming Gx(P) for the SCF density, NAtomX=     8.
 Integral derivatives from FoFDir/FoFCou, PRISM(SPDF).
 Do as many integral derivatives as possible in FoFDir.
 G2DrvN: MDV=    1073741656.
 G2DrvN: will do     9 centers at a time, making    1 passes doing MaxLOS=4.
 Calling FoFCou, ICntrl=  3107 FMM=F I1Cent=   0 AccDes= 0.00D+00.
 FoFCou: FMM=F IPFlag=           0 FMFlag=      100000 FMFlg1=           0
         NFxFlg=           0 DoJE=F BraDBF=F KetDBF=F FulRan=T
         Omega=  0.000000  0.000000  1.000000  0.000000  0.000000 ICntrl=    3107 IOpCl=  0
         NMat0=    1 NMatS0=    1 NMatT0=    0 NMatD0=    4 NMtDS0=    3 NMtDT0=    0
         I1Cent=           0 NGrid=           0.
 Petite list used in FoFCou.
 FoFDir/FoFCou used for L=0 through L=4.
 End of G2Drv Frequency-dependent properties file   721 does not exist.
 End of G2Drv Frequency-dependent properties file   722 does not exist.
 Leave Link 1110 at Thu Feb 26 01:12:06 2015, MaxMem= 1073741824 cpu:    2167.8
 (Enter /apps/gaussian/g09_c01/g09/l1002.exe)
 Minotr:  Closed shell wavefunction.
          IDoAtm=11111111
          Direct CPHF calculation.
          Differentiating once with respect to electric field.
                with respect to dipole field.
          Differentiating once with respect to nuclear coordinates.
          Using symmetry in CPHF.
          Requested convergence is 1.0D-08 RMS, and 1.0D-07 maximum.
          Secondary convergence is 1.0D-12 RMS, and 1.0D-12 maximum.
          NewPWx=T KeepS1=F KeepF1=F KeepIn=T MapXYZ=F SortEE=F KeepMc=T.
          MDV=    1073741740 using IRadAn=       1.
 Generate precomputed XC quadrature information.
          Solving linear equations simultaneously, MaxMat=       0.
 Integrals replicated using symmetry in FoFDir.
 MinBra= 0 MaxBra= 4 Meth= 1.
 IRaf=       0 NMat=  15 IRICut=       1 DoRegI=T DoRafI=F ISym2E= 2 JSym2E=2.
          There are    15 degrees of freedom in the 1st order CPHF.  IDoFFX=4.
 Will reuse    3 saved solutions.
     12 vectors produced by pass  0 Test12= 2.56D-14 6.67D-09 XBig12= 6.54D-02 8.16D-02.
 AX will form    12 AO Fock derivatives at one time.
     12 vectors produced by pass  1 Test12= 2.56D-14 6.67D-09 XBig12= 7.90D-03 1.97D-02.
     12 vectors produced by pass  2 Test12= 2.56D-14 6.67D-09 XBig12= 4.37D-05 1.41D-03.
     12 vectors produced by pass  3 Test12= 2.56D-14 6.67D-09 XBig12= 2.67D-07 1.03D-04.
     12 vectors produced by pass  4 Test12= 2.56D-14 6.67D-09 XBig12= 8.63D-10 6.74D-06.
     10 vectors produced by pass  5 Test12= 2.56D-14 6.67D-09 XBig12= 2.54D-12 4.28D-07.
      3 vectors produced by pass  6 Test12= 2.56D-14 6.67D-09 XBig12= 4.77D-15 1.20D-08.
 Inverted reduced A of dimension    73 with in-core refinement.
 FullF1:  Do perturbations    1 to    15.
 Isotropic polarizability for W=    0.000000       20.41 Bohr**3.
 FullF1:  Do perturbations    1 to     6.
 End of Minotr Frequency-dependent properties file   721 does not exist.
 End of Minotr Frequency-dependent properties file   722 does not exist.
 Leave Link 1002 at Thu Feb 26 01:40:52 2015, MaxMem= 1073741824 cpu:   13769.6
 (Enter /apps/gaussian/g09_c01/g09/l601.exe)
 Copying SCF densities to generalized density rwf, IOpCl= 0 IROHF=0.

 **********************************************************************

            Population analysis using the SCF density.

 **********************************************************************

 Orbital symmetries:
       Occupied  (A) (A) (A) (A) (E) (E) (A) (E) (E)
       Virtual   (A) (A) (E) (E) (E) (E) (A) (E) (E) (A) (A) (E)
                 (E) (A) (E) (E) (E) (E) (A) (E) (E) (A) (A) (A)
                 (E) (E) (A) (E) (E) (E) (E) (A) (E) (E) (A) (E)
                 (E) (A) (A) (E) (E) (A) (E) (E) (E) (E) (A) (E)
                 (E) (A) (E) (E) (A) (A) (A) (E) (E) (E) (E) (E)
                 (E) (A) (E) (E) (A) (A) (E) (E) (A) (A) (E) (E)
                 (A) (E) (E) (E) (E) (A) (E) (E) (E) (E) (A) (E)
                 (E) (A) (E) (E) (A) (E) (E) (A) (A) (E) (E) (E)
                 (E) (A) (A) (E) (E) (E) (E) (A) (E) (E) (A) (A)
                 (E) (E) (A) (E) (E) (A) (A) (E) (E) (E) (E) (E)
                 (E) (A) (A) (E) (E) (A) (A) (A) (E) (E) (E) (E)
                 (A) (E) (E) (E) (E) (E) (E) (E) (E) (A) (A) (A)
                 (E) (E) (A) (A) (E) (E) (E) (E) (A) (E) (E) (E)
                 (E) (A) (A) (A) (E) (E) (A) (E) (E) (E) (E) (A)
                 (E) (E) (A) (A) (E) (E) (A) (E) (E) (A) (E) (E)
                 (A) (E) (E) (A) (E) (E) (E) (E) (A) (E) (E) (A)
                 (E) (E) (A) (A) (E) (E) (A) (E) (E) (A) (E) (E)
                 (A) (E) (E) (A) (E) (E) (A) (E) (E) (A) (A) (E)
                 (E) (A) (E) (E) (E) (E) (A) (E) (E) (A) (E) (E)
                 (E) (E) (A) (A) (A) (E) (E) (A) (A) (E) (E) (E)
                 (E) (A) (A) (E) (E) (E) (E) (A) (E) (E) (A) (E)
                 (E) (E) (E) (A) (A) (E) (E) (E) (E) (A) (E) (E)
                 (A) (E) (E) (E) (E) (A) (A) (A) (E) (E) (E) (E)
                 (A) (E) (E) (A) (A) (E) (E) (A) (E) (E) (A) (E)
                 (E) (A) (A) (E) (E) (A) (A) (E) (E) (E) (E) (A)
                 (E) (E) (E) (E) (E) (E) (A) (A) (A) (E) (E) (A)
                 (E) (E) (A) (E) (E) (A) (E) (E) (A) (A) (E) (E)
                 (E) (E) (A) (E) (E) (E) (E) (A) (A) (E) (E) (E)
                 (E) (A) (A) (E) (E) (E) (E) (E) (E) (A) (E) (E)
                 (A) (A) (A) (E) (E) (A) (A) (A) (E) (E) (E) (E)
                 (A) (E) (E) (E) (E) (E) (E) (E) (E) (A) (A) (A)
                 (E) (E) (E) (E) (E) (E) (A) (A) (E) (E) (A) (E)
                 (E) (A) (A) (E) (E) (E) (E) (E) (E) (E) (E) (A)
                 (A) (A) (A) (E) (E) (E) (E) (A) (A) (E) (E) (E)
                 (E) (A) (A) (E) (E) (A) (E) (E) (A) (E) (E) (E)
                 (E) (A) (E) (E) (A) (A) (A)
 The electronic state is 1-A.
 Alpha  occ. eigenvalues --  -14.72990 -10.48564  -1.24552  -0.95512  -0.81822
 Alpha  occ. eigenvalues --   -0.81822  -0.72004  -0.63813  -0.63813
 Alpha virt. eigenvalues --   -0.20485  -0.14088  -0.13905  -0.13905  -0.10120
 Alpha virt. eigenvalues --   -0.10120  -0.09021  -0.06662  -0.06662  -0.06555
 Alpha virt. eigenvalues --   -0.05136  -0.04722  -0.04722  -0.02842  -0.02438
 Alpha virt. eigenvalues --   -0.02438  -0.01068  -0.01068   0.00421   0.02406
 Alpha virt. eigenvalues --    0.02406   0.04904   0.06586   0.06834   0.06838
 Alpha virt. eigenvalues --    0.06838   0.09860   0.10088   0.10088   0.11866
 Alpha virt. eigenvalues --    0.11866   0.12504   0.13699   0.13699   0.14220
 Alpha virt. eigenvalues --    0.14459   0.14459   0.14989   0.15292   0.16989
 Alpha virt. eigenvalues --    0.16989   0.19856   0.21531   0.21531   0.21870
 Alpha virt. eigenvalues --    0.21870   0.24467   0.27195   0.27195   0.31142
 Alpha virt. eigenvalues --    0.33520   0.33520   0.33551   0.36763   0.37279
 Alpha virt. eigenvalues --    0.38092   0.38092   0.41499   0.41499   0.43796
 Alpha virt. eigenvalues --    0.43796   0.44926   0.46234   0.46234   0.46636
 Alpha virt. eigenvalues --    0.47274   0.48059   0.48059   0.48474   0.50871
 Alpha virt. eigenvalues --    0.52340   0.52340   0.55034   0.55737   0.55737
 Alpha virt. eigenvalues --    0.59157   0.59157   0.60434   0.62527   0.62527
 Alpha virt. eigenvalues --    0.63878   0.63878   0.65890   0.66595   0.66595
 Alpha virt. eigenvalues --    0.68536   0.71479   0.71479   0.72592   0.73541
 Alpha virt. eigenvalues --    0.73541   0.74679   0.77681   0.82001   0.82001
 Alpha virt. eigenvalues --    0.85791   0.85791   0.86953   0.87017   0.87690
 Alpha virt. eigenvalues --    0.87690   0.88755   0.88755   0.92173   0.99996
 Alpha virt. eigenvalues --    0.99996   1.01530   1.01760   1.03493   1.03493
 Alpha virt. eigenvalues --    1.03703   1.12164   1.12164   1.12615   1.14672
 Alpha virt. eigenvalues --    1.16330   1.16330   1.17167   1.17167   1.19359
 Alpha virt. eigenvalues --    1.19359   1.19944   1.23467   1.26904   1.26904
 Alpha virt. eigenvalues --    1.29407   1.33062   1.36037   1.36897   1.36897
 Alpha virt. eigenvalues --    1.38715   1.38715   1.45506   1.46478   1.46478
 Alpha virt. eigenvalues --    1.50305   1.50305   1.56864   1.56864   1.57257
 Alpha virt. eigenvalues --    1.57257   1.57310   1.61649   1.64627   1.65051
 Alpha virt. eigenvalues --    1.65051   1.66854   1.67301   1.69717   1.69717
 Alpha virt. eigenvalues --    1.73116   1.73116   1.75069   1.76036   1.76036
 Alpha virt. eigenvalues --    1.78166   1.78166   1.78818   1.78959   1.82595
 Alpha virt. eigenvalues --    1.83265   1.83265   1.85287   1.86761   1.86761
 Alpha virt. eigenvalues --    1.87503   1.87503   1.89303   1.93454   1.93454
 Alpha virt. eigenvalues --    1.93629   1.97878   2.07769   2.07769   2.09126
 Alpha virt. eigenvalues --    2.09430   2.09430   2.13959   2.16187   2.16187
 Alpha virt. eigenvalues --    2.18945   2.22703   2.22703   2.28303   2.30877
 Alpha virt. eigenvalues --    2.30877   2.34658   2.34658   2.34873   2.36548
 Alpha virt. eigenvalues --    2.36548   2.39308   2.42490   2.42490   2.43091
 Alpha virt. eigenvalues --    2.47538   2.49295   2.49295   2.49708   2.53874
 Alpha virt. eigenvalues --    2.53874   2.59011   2.64719   2.64719   2.65385
 Alpha virt. eigenvalues --    2.66034   2.66034   2.70175   2.73639   2.73639
 Alpha virt. eigenvalues --    2.73870   2.80410   2.80410   2.81017   2.82741
 Alpha virt. eigenvalues --    2.85526   2.85526   2.94410   3.00098   3.00098
 Alpha virt. eigenvalues --    3.07629   3.07629   3.13354   3.13994   3.13994
 Alpha virt. eigenvalues --    3.22314   3.23298   3.23298   3.25100   3.25100
 Alpha virt. eigenvalues --    3.27157   3.32968   3.40081   3.40868   3.40868
 Alpha virt. eigenvalues --    3.51730   3.52546   3.54406   3.54406   3.57200
 Alpha virt. eigenvalues --    3.57200   3.61677   3.64607   3.67676   3.67676
 Alpha virt. eigenvalues --    3.75819   3.75819   3.78744   3.79866   3.79866
 Alpha virt. eigenvalues --    3.84245   3.86886   3.86886   3.96547   3.96547
 Alpha virt. eigenvalues --    3.99807   4.08946   4.09086   4.09086   4.18384
 Alpha virt. eigenvalues --    4.18384   4.27551   4.30885   4.30885   4.32497
 Alpha virt. eigenvalues --    4.35203   4.35203   4.47874   4.47874   4.50670
 Alpha virt. eigenvalues --    4.62627   4.63500   4.63633   4.63633   4.82537
 Alpha virt. eigenvalues --    4.82537   4.83022   4.96952   4.96952   5.10395
 Alpha virt. eigenvalues --    5.34216   5.70085   5.70085   5.71298   5.91631
 Alpha virt. eigenvalues --    5.91631   5.93244   6.18919   6.18919   6.22871
 Alpha virt. eigenvalues --    6.26063   6.31297   6.31297   6.32547   6.35551
 Alpha virt. eigenvalues --    6.37380   6.37380   6.40270   6.40270   6.48823
 Alpha virt. eigenvalues --    6.49753   6.49753   6.62618   6.62618   6.65448
 Alpha virt. eigenvalues --    6.65448   6.71754   6.75796   6.82963   6.86466
 Alpha virt. eigenvalues --    6.86466   6.89074   6.94185   6.94185   7.00312
 Alpha virt. eigenvalues --    7.05578   7.05578   7.10992   7.18799   7.18799
 Alpha virt. eigenvalues --    7.19839   7.21626   7.30434   7.30434   7.38727
 Alpha virt. eigenvalues --    7.38727   7.46736   7.55284   7.55284   7.59394
 Alpha virt. eigenvalues --    7.59394   7.60750   7.67538   7.69931   7.69931
 Alpha virt. eigenvalues --    7.81699   7.81699   7.90649   7.96773   7.99068
 Alpha virt. eigenvalues --    7.99068   8.04459   8.04459   8.10080   8.10080
 Alpha virt. eigenvalues --    8.14935   8.24422   8.24422   8.28014   8.36963
 Alpha virt. eigenvalues --    8.37693   8.38857   8.38857   8.44737   8.47472
 Alpha virt. eigenvalues --    8.53368   8.53899   8.53899   8.60632   8.60632
 Alpha virt. eigenvalues --    8.65554   8.69640   8.69640   8.76938   8.76938
 Alpha virt. eigenvalues --    8.85935   8.85935   8.87915   8.87915   8.93650
 Alpha virt. eigenvalues --    8.96429   9.01704   9.06528   9.06528   9.08212
 Alpha virt. eigenvalues --    9.08212   9.14686   9.14686   9.29316   9.34621
 Alpha virt. eigenvalues --    9.36821   9.36821   9.39611   9.47693   9.47693
 Alpha virt. eigenvalues --    9.50609   9.52865   9.74026   9.74026   9.78656
 Alpha virt. eigenvalues --    9.78656   9.85207   9.85207   9.88068   9.88068
 Alpha virt. eigenvalues --   10.02977  10.11478  10.23307  10.24193  10.26446
 Alpha virt. eigenvalues --   10.26446  10.36930  10.36930  10.39653  10.53888
 Alpha virt. eigenvalues --   10.54107  10.54107  10.79870  10.79870  10.92765
 Alpha virt. eigenvalues --   11.20222  11.35441  11.35441  11.67863  11.71626
 Alpha virt. eigenvalues --   11.71626  12.22223  12.43165  12.43165  12.61665
 Alpha virt. eigenvalues --   12.61665  13.02816  14.27099  14.27099  14.64155
 Alpha virt. eigenvalues --   27.89321  36.77133
          Condensed to atoms (all electrons):
              1          2          3          4          5          6
     1  C    5.552930   0.370000   0.370000   0.370000   0.272364  -0.009974
     2  H    0.370000   0.261390   0.013446   0.013446  -0.021290  -0.000450
     3  H    0.370000   0.013446   0.261390   0.013446  -0.021290  -0.000021
     4  H    0.370000   0.013446   0.013446   0.261390  -0.021290  -0.000018
     5  N    0.272364  -0.021290  -0.021290  -0.021290   5.839762   0.359883
     6  H   -0.009974  -0.000450  -0.000021  -0.000018   0.359883   0.368989
     7  H   -0.009974  -0.000021  -0.000018  -0.000450   0.359883  -0.016335
     8  H   -0.009974  -0.000018  -0.000450  -0.000021   0.359883  -0.016335
              7          8
     1  C   -0.009974  -0.009974
     2  H   -0.000021  -0.000018
     3  H   -0.000018  -0.000450
     4  H   -0.000450  -0.000021
     5  N    0.359883   0.359883
     6  H   -0.016335  -0.016335
     7  H    0.368989  -0.016335
     8  H   -0.016335   0.368989
 Mulliken atomic charges:
              1
     1  C   -0.905371
     2  H    0.363498
     3  H    0.363498
     4  H    0.363498
     5  N   -0.127908
     6  H    0.314261
     7  H    0.314261
     8  H    0.314261
 Sum of Mulliken atomic charges =   1.00000
 Mulliken charges with hydrogens summed into heavy atoms:
              1
     1  C    0.185123
     5  N    0.814877
 Sum of Mulliken charges with hydrogens summed into heavy atoms =   1.00000
 APT atomic charges:
              1
     1  C    0.234616
     2  H    0.072238
     3  H    0.072237
     4  H    0.072237
     5  N   -0.228297
     6  H    0.258989
     7  H    0.258990
     8  H    0.258990
 Sum of APT charges=   1.00000
 APT Atomic charges with hydrogens summed into heavy atoms:
              1
     1  C    0.451328
     2  H    0.000000
     3  H    0.000000
     4  H    0.000000
     5  N    0.548672
     6  H    0.000000
     7  H    0.000000
     8  H    0.000000
 Sum of APT charges=   1.00000
 Electronic spatial extent (au):  <R**2>=             94.5221
 Charge=              1.0000 electrons
 Dipole moment (field-independent basis, Debye):
    X=              0.0000    Y=              0.0000    Z=              2.1774  Tot=              2.1774
 Quadrupole moment (field-independent basis, Debye-Ang):
   XX=            -10.0813   YY=            -10.0813   ZZ=             -6.6134
   XY=              0.0000   XZ=              0.0000   YZ=              0.0000
 Traceless Quadrupole moment (field-independent basis, Debye-Ang):
   XX=             -1.1560   YY=             -1.1560   ZZ=              2.3119
   XY=              0.0000   XZ=              0.0000   YZ=              0.0000
 Octapole moment (field-independent basis, Debye-Ang**2):
  XXX=             -0.3826  YYY=             -0.1098  ZZZ=              5.7309  XYY=              0.3826
  XXY=              0.1098  XXZ=              2.5765  XZZ=              0.0000  YZZ=              0.0000
  YYZ=              2.5765  XYZ=              0.0000
 Hexadecapole moment (field-independent basis, Debye-Ang**3):
 XXXX=            -17.7645 YYYY=            -17.7645 ZZZZ=            -62.0293 XXXY=              0.0000
 XXXZ=             -2.8133 YYYX=              0.0000 YYYZ=             -0.8041 ZZZX=              0.0000
 ZZZY=              0.0000 XXYY=             -5.9215 XXZZ=            -10.6427 YYZZ=            -10.6427
 XXYZ=              0.8041 YYXZ=              2.8133 ZZXY=              0.0000
 N-N= 4.758461005939D+01 E-N=-3.132355601764D+02  KE= 9.557347770072D+01
  Exact polarizability:  19.336   0.000  19.336   0.000   0.000  22.546
 Approx polarizability:  24.983   0.000  24.983   0.000   0.000  26.515
 No NMR shielding tensors so no spin-rotation constants.
 Leave Link  601 at Thu Feb 26 01:40:53 2015, MaxMem= 1073741824 cpu:       3.8
 (Enter /apps/gaussian/g09_c01/g09/l701.exe)
 Compute integral second derivatives.
 ... and contract with generalized density number  0.
 Leave Link  701 at Thu Feb 26 01:40:53 2015, MaxMem= 1073741824 cpu:       4.4
 (Enter /apps/gaussian/g09_c01/g09/l702.exe)
 L702 exits ... SP integral derivatives will be done elsewhere.
 Leave Link  702 at Thu Feb 26 01:40:53 2015, MaxMem= 1073741824 cpu:       0.1
 (Enter /apps/gaussian/g09_c01/g09/l703.exe)
 Compute integral second derivatives, UseDBF=F ICtDFT=           0.
 Integral derivatives from FoFDir, PRISM(SPDF).
 Calling FoFJK, ICntrl=    100127 FMM=F ISym2X=1 I1Cent= 0 IOpClX= 0 NMat=1 NMatS=1 NMatT=0.
 FoFCou: FMM=F IPFlag=           0 FMFlag=      100000 FMFlg1=         800
         NFxFlg=           0 DoJE=F BraDBF=F KetDBF=F FulRan=T
         Omega=  0.000000  0.000000  1.000000  0.000000  0.000000 ICntrl=  100127 IOpCl=  0
         NMat0=    1 NMatS0=    1 NMatT0=    0 NMatD0=    1 NMtDS0=    0 NMtDT0=    0
         I1Cent=           0 NGrid=           0.
 Petite list used in FoFCou.
 Leave Link  703 at Thu Feb 26 01:49:33 2015, MaxMem= 1073741824 cpu:    4145.7
 (Enter /apps/gaussian/g09_c01/g09/l716.exe)
 Dipole        =-2.70061844D-16 2.03354654D-15 8.56648124D-01
 Polarizability= 1.93355800D+01-5.55930258D-06 1.93356095D+01
                -1.56054495D-07 2.32974918D-05 2.25464655D+01
 HyperPolar    = 1.50624071D+00-4.29413937D-01-1.50783408D+00
                 4.29003724D-01-2.33096997D+00-1.27032244D-04
                -2.33106239D+00 1.05948445D-05 2.12829155D-04
                 6.44014183D+00
 ***** Axes restored to original set *****
 -------------------------------------------------------------------
 Center     Atomic                   Forces (Hartrees/Bohr)
 Number     Number              X              Y              Z
 -------------------------------------------------------------------
      1        6           0.000000000    0.000000000    0.007422296
      2        1           0.000211727    0.002280013    0.000884424
      3        1           0.001868685   -0.001323368    0.000884424
      4        1          -0.002080413   -0.000956645    0.000884424
      5        7           0.000000000    0.000000000   -0.001573875
      6        1          -0.000487831   -0.005234615   -0.002833898
      7        1           0.004777225    0.002194833   -0.002833898
      8        1          -0.004289394    0.003039781   -0.002833898
 -------------------------------------------------------------------
 Cartesian Forces:  Max     0.007422296 RMS     0.002758732
 Force constants in Cartesian coordinates: 
                1             2             3             4             5 
      1  0.625778D+00
      2  0.000000D+00  0.625778D+00
      3  0.000000D+00  0.000000D+00  0.398581D+00
      4 -0.529531D-01 -0.237398D-01 -0.762954D-02  0.489721D-01
      5 -0.237403D-01 -0.306038D+00 -0.820248D-01  0.252620D-01  0.318279D+00
      6 -0.627769D-02 -0.674834D-01 -0.716876D-01  0.782856D-02  0.841584D-01
      7 -0.222207D+00  0.121459D+00 -0.672208D-01  0.419042D-02 -0.356983D-02
      8  0.121459D+00 -0.136784D+00  0.476198D-01  0.227760D-01 -0.122864D-01
      9 -0.553036D-01  0.391784D-01 -0.716877D-01  0.899218D-02 -0.428549D-02
     10 -0.263326D+00 -0.977186D-01  0.748504D-01  0.149337D-03  0.123671D-02
     11 -0.977193D-01 -0.956648D-01  0.344050D-01 -0.251091D-01 -0.824528D-02
     12  0.615813D-01  0.283051D-01 -0.716877D-01 -0.962812D-02 -0.255393D-02
     13 -0.966163D-01 -0.185883D-05  0.000000D+00 -0.881365D-03  0.710316D-03
     14  0.184073D-05 -0.966161D-01  0.000000D+00  0.709540D-03  0.668862D-02
     15  0.000000D+00  0.000000D+00 -0.147687D+00  0.366087D-03  0.394404D-02
     16 -0.165002D-04  0.587565D-03 -0.205265D-03  0.312997D-03  0.596642D-04
     17  0.586914D-03  0.623293D-02 -0.221111D-02  0.596171D-04  0.948543D-03
     18 -0.304621D-02 -0.327233D-01 -0.119436D-01  0.208696D-03  0.224635D-02
     19  0.517917D-02  0.241279D-02  0.201742D-02  0.198517D-03  0.286643D-03
     20  0.241218D-02  0.103728D-02  0.927719D-03  0.755088D-03  0.232586D-03
     21  0.298623D-01  0.137236D-01 -0.119436D-01  0.310380D-03 -0.777576D-03
     22  0.416201D-02 -0.299940D-02 -0.181222D-02  0.111611D-04 -0.245073D-03
     23 -0.300002D-02  0.205442D-02  0.128324D-02 -0.713309D-03  0.420769D-03
     24 -0.268161D-01  0.189997D-01 -0.119436D-01 -0.448205D-03 -0.707105D-03
                6             7             8             9            10 
      6  0.863168D-01
      7  0.260229D-02  0.229075D+00
      8  0.961516D-02 -0.129244D+00  0.138176D+00
      9  0.486014D-02  0.689690D-01 -0.488589D-01  0.863168D-01
     10 -0.784746D-03 -0.164837D-01 -0.108398D-01  0.702582D-02  0.272830D+00
     11  0.993020D-02  0.155060D-01  0.838772D-02 -0.706123D-02  0.103982D+00
     12  0.486014D-02 -0.820744D-02 -0.564471D-02  0.486014D-02 -0.767976D-01
     13 -0.337654D-02  0.418131D-02 -0.363250D-02 -0.297532D-01  0.541099D-02
     14 -0.363055D-01 -0.363330D-02  0.162598D-02  0.210769D-01  0.292255D-02
     15 -0.203598D-01  0.323262D-02 -0.228910D-02 -0.203598D-01 -0.359877D-02
     16  0.175445D-03 -0.227014D-03 -0.509408D-03 -0.710049D-03 -0.966244D-04
     17  0.188080D-02 -0.409623D-04  0.658117D-03  0.557374D-03  0.182843D-03
     18 -0.651233D-02 -0.828591D-03  0.119991D-03  0.126084D-02  0.836473D-03
     19 -0.127675D-03  0.733359D-03  0.296348D-03 -0.761389D-03  0.841307D-03
     20 -0.893607D-03 -0.171888D-03 -0.301428D-03  0.485265D-03  0.245356D-03
     21  0.126084D-02 -0.388268D-03  0.741710D-03  0.126190D-02 -0.204975D-02
     22 -0.395572D-04  0.738006D-03 -0.304996D-03  0.154109D-02  0.675151D-03
     23 -0.902015D-03 -0.305043D-03  0.523534D-03 -0.109234D-02 -0.114576D-04
     24  0.126190D-02  0.184105D-02 -0.130391D-02 -0.651233D-02  0.518210D-03
               11            12            13            14            15 
     11  0.944214D-01
     12 -0.352995D-01  0.863168D-01
     13  0.292335D-02  0.331298D-01  0.710174D+00
     14  0.396298D-03  0.152286D-01  0.000000D+00  0.710174D+00
     15 -0.165500D-02 -0.203598D-01  0.000000D+00  0.000000D+00  0.505821D+00
     16  0.651079D-03  0.800946D-03 -0.663914D-01 -0.264905D-01 -0.981522D-02
     17  0.528555D-03  0.416750D-03 -0.264900D-01 -0.348454D+00 -0.105404D+00
     18 -0.346046D-04  0.126190D-02 -0.105001D-01 -0.112765D+00 -0.990181D-01
     19  0.245403D-03 -0.171654D-02 -0.300880D+00 -0.108892D+00  0.961901D-01
     20  0.420233D-03 -0.788458D-03 -0.108891D+00 -0.113966D+00  0.442017D-01
     21 -0.942440D-03 -0.651233D-02  0.102908D+00  0.472892D-01 -0.990181D-01
     22 -0.479903D-03  0.837724D-03 -0.254997D+00  0.135382D+00 -0.863749D-01
     23 -0.244049D-03  0.336234D-03  0.135382D+00 -0.159848D+00  0.612022D-01
     24  0.657585D-03  0.126084D-02 -0.924075D-01  0.654759D-01 -0.990181D-01
               16            17            18            19            20 
     16  0.620671D-01
     17  0.287943D-01  0.368657D+00
     18  0.107464D-01  0.115418D+00  0.104293D+00
     19 -0.502526D-03  0.275700D-04 -0.562605D-03  0.316946D+00
     20 -0.316315D-01 -0.116069D-01  0.140423D-01  0.118360D+00  0.113778D+00
     21 -0.134345D-01 -0.412378D-02  0.532897D-02 -0.105328D+00 -0.484023D-01
     22  0.485409D-02 -0.312021D-02  0.314598D-02 -0.225157D-01  0.189222D-01
     23  0.285388D-01 -0.169635D-01  0.136965D-01 -0.127369D-01  0.104063D-01
     24  0.124423D-01 -0.653394D-02  0.532897D-02  0.102886D-01 -0.957277D-02
               21            22            23            24 
     21  0.104293D+00
     22 -0.118797D-01  0.267073D+00
     23 -0.750840D-02 -0.147154D+00  0.163651D+00
     24  0.532897D-02  0.945816D-01 -0.670156D-01  0.104293D+00
 Force constants in internal coordinates: 
                1             2             3             4             5 
      1  0.347928D+00
      2  0.138754D-02  0.347928D+00
      3  0.138757D-02  0.138752D-02  0.347928D+00
      4  0.310732D-02  0.310728D-02  0.310722D-02  0.256566D+00
      5 -0.143208D-02  0.329179D-03  0.329121D-03  0.525969D-02  0.414504D+00
      6  0.329172D-03  0.329140D-03 -0.143204D-02  0.525954D-02  0.230623D-02
      7  0.329131D-03 -0.143207D-02  0.329181D-03  0.525955D-02  0.230621D-02
      8  0.375627D-02  0.375639D-02 -0.142339D-02 -0.253079D-01  0.507062D-04
      9  0.375640D-02 -0.142337D-02  0.375626D-02 -0.253079D-01  0.512188D-04
     10  0.826676D-03 -0.361532D-02 -0.361525D-02  0.266152D-01  0.240130D-02
     11 -0.142338D-02  0.375627D-02  0.375640D-02 -0.253079D-01  0.934288D-03
     12 -0.361521D-02  0.826654D-03 -0.361532D-02  0.266152D-01 -0.174549D-02
     13 -0.361534D-02 -0.361520D-02  0.826730D-03  0.266153D-01 -0.174556D-02
     14  0.496036D-03  0.141437D-03  0.140773D-03  0.135727D-01 -0.495047D-02
     15  0.141419D-03  0.140786D-03  0.496022D-03  0.135728D-01 -0.417362D-02
     16  0.140776D-03  0.496010D-03  0.141445D-03  0.135727D-01 -0.417329D-02
     17 -0.346498D-03 -0.143605D-03 -0.346244D-03 -0.145863D-01  0.702805D-02
     18 -0.346247D-03 -0.346496D-03 -0.143595D-03 -0.145862D-01  0.703169D-02
     19 -0.143598D-03 -0.346244D-03 -0.346514D-03 -0.145862D-01  0.230592D-03
     20  0.000000D+00 -0.291305D-02  0.291305D-02  0.000000D+00  0.251890D-05
     21 -0.509318D-05 -0.290280D-02  0.290786D-02  0.000000D+00  0.271260D-02
     22  0.515327D-05 -0.290799D-02  0.290279D-02  0.000000D+00 -0.271243D-02
     23  0.290786D-02 -0.509592D-05 -0.290283D-02  0.000000D+00  0.436226D-03
     24  0.290279D-02  0.516057D-05 -0.290802D-02  0.000000D+00  0.314631D-02
     25  0.291304D-02  0.000000D+00 -0.291309D-02  0.000000D+00 -0.227873D-02
     26 -0.290800D-02  0.290278D-02  0.517415D-05  0.000000D+00 -0.431766D-03
     27 -0.291306D-02  0.291304D-02  0.000000D+00  0.000000D+00  0.227831D-02
     28 -0.290281D-02  0.290785D-02 -0.509168D-05  0.000000D+00 -0.314672D-02
                6             7             8             9            10 
      6  0.414504D+00
      7  0.230619D-02  0.414504D+00
      8  0.934289D-03  0.512200D-04  0.517003D-01
      9  0.507121D-04  0.934288D-03  0.118241D-01  0.517003D-01
     10 -0.174550D-02 -0.174555D-02 -0.449660D-01 -0.449638D-01  0.130961D+00
     11  0.512072D-04  0.507070D-04  0.118241D-01  0.118241D-01  0.106888D-01
     12 -0.174552D-02  0.240129D-02 -0.449638D-01  0.106888D-01 -0.238133D-01
     13  0.240128D-02 -0.174549D-02  0.106888D-01 -0.449660D-01 -0.238133D-01
     14 -0.417334D-02 -0.417363D-02 -0.390088D-02 -0.390037D-02  0.170679D-01
     15 -0.495047D-02 -0.417329D-02  0.341403D-02 -0.390087D-02 -0.622599D-02
     16 -0.417361D-02 -0.495046D-02 -0.390036D-02  0.341403D-02 -0.622801D-02
     17  0.703169D-02  0.230596D-03  0.622915D-03  0.346921D-02 -0.463301D-02
     18  0.230599D-03  0.702805D-02  0.346922D-02  0.622677D-03 -0.463195D-02
     19  0.702807D-02  0.703169D-02  0.622675D-03  0.622916D-03  0.430658D-02
     20 -0.227873D-02  0.227832D-02 -0.581173D-02  0.581070D-02  0.121533D-05
     21  0.436197D-03 -0.314671D-02 -0.535101D-02  0.488920D-02  0.152207D-02
     22  0.314632D-02 -0.431763D-03 -0.489024D-02  0.534993D-02 -0.151962D-02
     23 -0.314670D-02  0.271260D-02  0.488920D-02  0.460856D-03  0.715131D-02
     24 -0.431776D-03 -0.271243D-02  0.534992D-02 -0.460641D-03  0.867217D-02
     25  0.227834D-02  0.251847D-05  0.581069D-02  0.000000D+00  0.563048D-02
     26 -0.271242D-02  0.314630D-02 -0.460630D-03 -0.489024D-02 -0.715155D-02
     27  0.250161D-05 -0.227873D-02  0.000000D+00 -0.581174D-02 -0.563069D-02
     28  0.271262D-02  0.436222D-03  0.460860D-03 -0.535101D-02 -0.867239D-02
               11            12            13            14            15 
     11  0.517003D-01
     12 -0.449660D-01  0.130961D+00
     13 -0.449638D-01 -0.238132D-01  0.130961D+00
     14  0.341402D-02 -0.622599D-02 -0.622802D-02  0.974112D-01
     15 -0.390036D-02 -0.622802D-02  0.170679D-01 -0.178533D-01  0.974112D-01
     16 -0.390087D-02  0.170679D-01 -0.622601D-02 -0.178533D-01 -0.178533D-01
     17  0.622673D-03  0.430658D-02 -0.463193D-02 -0.398209D-01 -0.398212D-01
     18  0.622916D-03 -0.463301D-02  0.430658D-02 -0.398212D-01  0.133298D-01
     19  0.346922D-02 -0.463195D-02 -0.463301D-02  0.133298D-01 -0.398209D-01
     20  0.000000D+00 -0.563068D-02  0.563045D-02  0.000000D+00 -0.223413D-02
     21  0.460857D-03 -0.867238D-02  0.715131D-02  0.373378D-02  0.149965D-02
     22 -0.460628D-03 -0.715155D-02  0.867216D-02 -0.373416D-02  0.523383D-02
     23 -0.535101D-02  0.152207D-02 -0.867238D-02  0.149965D-02 -0.523366D-02
     24 -0.489025D-02 -0.151963D-02 -0.715152D-02  0.523382D-02 -0.149988D-02
     25 -0.581173D-02  0.120038D-05 -0.563067D-02 -0.223413D-02  0.223430D-02
     26  0.534993D-02  0.867217D-02 -0.151962D-02 -0.149988D-02 -0.373417D-02
     27  0.581069D-02  0.563047D-02  0.122907D-05  0.223429D-02  0.000000D+00
     28  0.488920D-02  0.715130D-02  0.152208D-02 -0.523365D-02  0.373379D-02
               16            17            18            19            20 
     16  0.974112D-01
     17  0.133298D-01  0.531497D-01
     18 -0.398209D-01  0.905712D-02  0.531497D-01
     19 -0.398212D-01  0.905712D-02  0.905712D-02  0.531497D-01
     20  0.223429D-02 -0.716164D-02  0.716198D-02  0.000000D+00  0.140743D-01
     21 -0.523367D-02  0.604250D-02  0.559809D-03 -0.660205D-02  0.341128D-02
     22 -0.149989D-02 -0.559684D-03 -0.604215D-02  0.660207D-02  0.341127D-02
     23  0.373379D-02 -0.660206D-02  0.604249D-02  0.559808D-03  0.391888D-02
     24 -0.373416D-02  0.660208D-02 -0.559682D-03 -0.604215D-02 -0.674414D-02
     25  0.000000D+00  0.000000D+00 -0.716164D-02  0.716197D-02 -0.674415D-02
     26  0.523382D-02 -0.604215D-02  0.660208D-02 -0.559680D-03  0.391887D-02
     27 -0.223413D-02  0.716199D-02  0.000000D+00 -0.716164D-02 -0.674416D-02
     28  0.149965D-02  0.559806D-03 -0.660206D-02  0.604248D-02 -0.674417D-02
               21            22            23            24            25 
     21  0.147020D-01
     22  0.372514D-02  0.147020D-01
     23 -0.705801D-02 -0.737186D-02  0.147020D-01
     24  0.423273D-02 -0.705800D-02  0.372513D-02  0.147020D-01
     25 -0.674416D-02  0.391887D-02  0.341128D-02  0.341127D-02  0.140743D-01
     26 -0.737186D-02 -0.705800D-02  0.423273D-02 -0.705800D-02 -0.674415D-02
     27  0.391888D-02 -0.674414D-02 -0.674417D-02  0.391886D-02 -0.674416D-02
     28 -0.705801D-02  0.423272D-02 -0.705802D-02 -0.737186D-02  0.391887D-02
               26            27            28 
     26  0.147020D-01
     27  0.341127D-02  0.140743D-01
     28  0.372513D-02  0.341129D-02  0.147020D-01
 Leave Link  716 at Thu Feb 26 01:49:33 2015, MaxMem= 1073741824 cpu:       0.2
 (Enter /apps/gaussian/g09_c01/g09/l103.exe)

 GradGradGradGradGradGradGradGradGradGradGradGradGradGradGradGradGradGrad
 Berny optimization.
 Red2BG is reusing G-inverse.
 Internal  Forces:  Max     0.010075568 RMS     0.002852139
 Search for a local minimum.
 Step number   1 out of a maximum of   38
 All quantities printed in internal units (Hartrees-Bohrs-Radians)
 RMS Force = .28521D-02 SwitMx=.10000D-02 MixMth= 1
 Mixed Optimization -- RFO/linear search
 Second derivative matrix not updated -- analytic derivatives used.
 ITU=  0
     Eigenvalues ---    0.00176   0.04660   0.04660   0.04846   0.04846
     Eigenvalues ---    0.11821   0.12963   0.12963   0.13252   0.19281
     Eigenvalues ---    0.19281   0.29536   0.34694   0.34694   0.35121
     Eigenvalues ---    0.41264   0.41264   0.42073
 RFO step:  Lambda=-7.07062737D-04 EMin= 1.75799055D-03
 Linear search not attempted -- first point.
 Iteration  1 RMS(Cart)=  0.01210079 RMS(Int)=  0.00002266
 Iteration  2 RMS(Cart)=  0.00002046 RMS(Int)=  0.00000871
 Iteration  3 RMS(Cart)=  0.00000000 RMS(Int)=  0.00000871
 ClnCor:  largest displacement from symmetrization is 4.60D-08 for atom     7.
 Variable       Old X    -DE/DX   Delta X   Delta X   Delta X     New X
                                 (Linear)    (Quad)   (Total)
    R1        2.05946  -0.00245   0.00000  -0.00644  -0.00644   2.05302
    R2        2.05946  -0.00245   0.00000  -0.00644  -0.00644   2.05302
    R3        2.05946  -0.00245   0.00000  -0.00644  -0.00644   2.05302
    R4        2.86675  -0.01008   0.00000  -0.04069  -0.04069   2.82606
    R5        1.94289  -0.00593   0.00000  -0.01376  -0.01376   1.92913
    R6        1.94289  -0.00593   0.00000  -0.01376  -0.01376   1.92913
    R7        1.94289  -0.00593   0.00000  -0.01376  -0.01376   1.92913
    A1        1.93261   0.00013   0.00000  -0.00545  -0.00547   1.92714
    A2        1.93261   0.00013   0.00000  -0.00545  -0.00547   1.92714
    A3        1.88811  -0.00014   0.00000   0.00573   0.00571   1.89382
    A4        1.93261   0.00013   0.00000  -0.00545  -0.00547   1.92714
    A5        1.88811  -0.00014   0.00000   0.00573   0.00571   1.89382
    A6        1.88811  -0.00014   0.00000   0.00573   0.00571   1.89382
    A7        1.94749  -0.00063   0.00000  -0.00231  -0.00231   1.94518
    A8        1.94749  -0.00063   0.00000  -0.00231  -0.00231   1.94518
    A9        1.94749  -0.00063   0.00000  -0.00231  -0.00231   1.94518
   A10        1.87238   0.00068   0.00000   0.00248   0.00248   1.87486
   A11        1.87238   0.00068   0.00000   0.00248   0.00248   1.87486
   A12        1.87238   0.00068   0.00000   0.00248   0.00248   1.87486
    D1        3.14146   0.00000   0.00000   0.00010   0.00010   3.14156
    D2       -1.04733   0.00000   0.00000   0.00010   0.00010  -1.04723
    D3        1.04707   0.00000   0.00000   0.00010   0.00010   1.04717
    D4       -1.04733   0.00000   0.00000   0.00010   0.00010  -1.04723
    D5        1.04707   0.00000   0.00000   0.00010   0.00010   1.04717
    D6        3.14146   0.00000   0.00000   0.00010   0.00010   3.14156
    D7        1.04707   0.00000   0.00000   0.00010   0.00010   1.04717
    D8        3.14146   0.00000   0.00000   0.00010   0.00010   3.14156
    D9       -1.04733   0.00000   0.00000   0.00010   0.00010  -1.04723
         Item               Value     Threshold  Converged?
 Maximum Force            0.010076     0.000002     NO 
 RMS     Force            0.002852     0.000001     NO 
 Maximum Displacement     0.027217     0.000006     NO 
 RMS     Displacement     0.012114     0.000004     NO 
 Predicted change in Energy=-3.544422D-04
 GradGradGradGradGradGradGradGradGradGradGradGradGradGradGradGradGradGrad

 Leave Link  103 at Thu Feb 26 01:49:33 2015, MaxMem= 1073741824 cpu:       0.1
 (Enter /apps/gaussian/g09_c01/g09/l202.exe)
                          Input orientation:                          
 ---------------------------------------------------------------------
 Center     Atomic      Atomic             Coordinates (Angstroms)
 Number     Number       Type             X           Y           Z
 ---------------------------------------------------------------------
      1          6           0        0.000000    0.000000   -0.790052
      2          1           0       -0.095440   -1.025792   -1.134921
      3          1           0       -0.840642    0.595550   -1.134921
      4          1           0        0.936082    0.430243   -1.134921
      5          7           0        0.000000    0.000000    0.705435
      6          1           0        0.088051    0.946053    1.078760
      7          1           0       -0.863332   -0.396772    1.078760
      8          1           0        0.775281   -0.549281    1.078760
 ---------------------------------------------------------------------
                    Distance matrix (angstroms):
                    1          2          3          4          5
     1  C    0.000000
     2  H    1.086413   0.000000
     3  H    1.086413   1.784398   0.000000
     4  H    1.086413   1.784398   1.784398   0.000000
     5  N    1.495487   2.109092   2.109092   2.109092   0.000000
     6  H    2.096480   2.970223   2.426047   2.426026   1.020853
     7  H    2.096480   2.426047   2.426026   2.970223   1.020853
     8  H    2.096480   2.426026   2.970223   2.426047   1.020853
                    6          7          8
     6  H    0.000000
     7  H    1.645694   0.000000
     8  H    1.645694   1.645694   0.000000
 Stoichiometry    CH6N(1+)
 Framework group  C3[C3(CN),X(H6)]
 Deg. of freedom     6
 Full point group                 C3      NOp   3
 RotChk:  IX=0 Diff= 0.00D+00
 Largest Abelian subgroup         C1      NOp   1
 Largest concise Abelian subgroup C1      NOp   1
                         Standard orientation:                         
 ---------------------------------------------------------------------
 Center     Atomic      Atomic             Coordinates (Angstroms)
 Number     Number       Type             X           Y           Z
 ---------------------------------------------------------------------
      1          6           0        0.000000    0.000000   -0.791592
      2          1           0        1.025792   -0.095440   -1.136460
      3          1           0       -0.595550   -0.840642   -1.136460
      4          1           0       -0.430243    0.936082   -1.136460
      5          7           0        0.000000    0.000000    0.703895
      6          1           0       -0.946053    0.088051    1.077221
      7          1           0        0.396772   -0.863332    1.077221
      8          1           0        0.549281    0.775281    1.077221
 ---------------------------------------------------------------------
 Rotational constants (GHZ):     85.1021997     20.3460747     20.3460747
 Leave Link  202 at Thu Feb 26 01:49:33 2015, MaxMem= 1073741824 cpu:       0.0
 (Enter /apps/gaussian/g09_c01/g09/l301.exe)
 Standard basis: Aug-CC-pVQZ (5D, 7F)
 Ernie: Thresh=  0.10000D-02 Tol=  0.10000D-05 Strict=F.
 Ernie:  6 primitive shells out of 172 were deleted.
 There are   436 symmetry adapted basis functions of A   symmetry.
 Integral buffers will be    131072 words long.
 Raffenetti 2 integral format.
 Two-electron integral symmetry is turned on.
   436 basis functions,   590 primitive gaussians,   540 cartesian basis functions
     9 alpha electrons        9 beta electrons
       nuclear repulsion energy        48.0248914074 Hartrees.
 IExCor= 1009 DFT=T Ex+Corr=PBE1PBE ExCW=0 ScaHFX=  0.250000
 ScaDFX=  0.750000  0.750000  1.000000  1.000000 ScalE2=  1.000000  1.000000
 IRadAn=      5 IRanWt=     -1 IRanGd=            0 ICorTp=0
 NAtoms=    8 NActive=    8 NUniq=    4 SFac= 4.00D+00 NAtFMM=   60 NAOKFM=F Big=F
 Leave Link  301 at Thu Feb 26 01:49:33 2015, MaxMem= 1073741824 cpu:       0.3
 (Enter /apps/gaussian/g09_c01/g09/l302.exe)
 NPDir=0 NMtPBC=     1 NCelOv=     1 NCel=       1 NClECP=     1 NCelD=      1
         NCelK=      1 NCelE2=     1 NClLst=     1 CellRange=     0.0.
 One-electron integrals computed using PRISM.
 NBasis=   436 RedAO= T  NBF=   436
 NBsUse=   436 1.00D-06 NBFU=   436
 Precomputing XC quadrature grid using
 IXCGrd= 2 IRadAn=           5 IRanWt=          -1 IRanGd=           0 AccXCQ= 0.00D+00.
 NRdTot=     687 NPtTot=      184910 NUsed=      189836 NTot=      189868
 NSgBfM=   540   540   540   540   540 NAtAll=     8     8.
 Leave Link  302 at Thu Feb 26 01:49:34 2015, MaxMem= 1073741824 cpu:       3.8
 (Enter /apps/gaussian/g09_c01/g09/l303.exe)
 DipDrv:  MaxL=1.
 Leave Link  303 at Thu Feb 26 01:49:34 2015, MaxMem= 1073741824 cpu:       0.4
 (Enter /apps/gaussian/g09_c01/g09/l401.exe)
 Initial guess read from the read-write file.
 B after Tr=     0.000000    0.000000    0.000000
         Rot=    1.000000    0.000000    0.000000    0.000000 Ang=   0.00 deg.
 Guess basis will be translated and rotated to current coordinates.
 Initial guess orbital symmetries:
       Occupied  (A) (A) (A) (A) (E) (E) (A) (E) (E)
       Virtual   (A) (A) (E) (E) (E) (E) (A) (E) (E) (A) (A) (E)
                 (E) (A) (E) (E) (E) (E) (A) (E) (E) (A) (A) (A)
                 (E) (E) (A) (E) (E) (E) (E) (A) (E) (E) (A) (E)
                 (E) (A) (A) (E) (E) (A) (E) (E) (E) (E) (A) (E)
                 (E) (A) (E) (E) (A) (A) (A) (E) (E) (E) (E) (E)
                 (E) (A) (E) (E) (A) (A) (E) (E) (A) (A) (E) (E)
                 (A) (E) (E) (E) (E) (A) (E) (E) (E) (E) (A) (E)
                 (E) (A) (E) (E) (A) (E) (E) (A) (A) (E) (E) (E)
                 (E) (A) (A) (E) (E) (E) (E) (A) (E) (E) (A) (A)
                 (E) (E) (A) (E) (E) (A) (A) (E) (E) (E) (E) (E)
                 (E) (A) (A) (E) (E) (A) (A) (A) (E) (E) (E) (E)
                 (A) (E) (E) (E) (E) (E) (E) (E) (E) (A) (A) (A)
                 (E) (E) (A) (A) (E) (E) (E) (E) (A) (E) (E) (E)
                 (E) (A) (A) (A) (E) (E) (A) (E) (E) (E) (E) (A)
                 (E) (E) (A) (A) (E) (E) (A) (E) (E) (A) (E) (E)
                 (A) (E) (E) (A) (E) (E) (E) (E) (A) (E) (E) (A)
                 (E) (E) (A) (A) (E) (E) (A) (E) (E) (A) (E) (E)
                 (A) (E) (E) (A) (E) (E) (A) (E) (E) (A) (A) (E)
                 (E) (A) (E) (E) (E) (E) (A) (E) (E) (A) (E) (E)
                 (E) (E) (A) (A) (A) (E) (E) (A) (A) (E) (E) (E)
                 (E) (A) (A) (E) (E) (E) (E) (A) (E) (E) (A) (E)
                 (E) (E) (E) (A) (A) (E) (E) (E) (E) (A) (E) (E)
                 (A) (E) (E) (E) (E) (A) (A) (A) (E) (E) (E) (E)
                 (A) (E) (E) (A) (A) (E) (E) (A) (E) (E) (A) (E)
                 (E) (A) (A) (E) (E) (A) (A) (E) (E) (E) (E) (A)
                 (E) (E) (E) (E) (E) (E) (A) (A) (A) (E) (E) (A)
                 (E) (E) (A) (E) (E) (A) (E) (E) (A) (A) (E) (E)
                 (E) (E) (A) (E) (E) (E) (E) (A) (A) (E) (E) (E)
                 (E) (A) (A) (E) (E) (E) (E) (E) (E) (A) (E) (E)
                 (A) (A) (A) (E) (E) (A) (A) (A) (E) (E) (E) (E)
                 (A) (E) (E) (E) (E) (E) (E) (E) (E) (A) (A) (A)
                 (E) (E) (E) (E) (E) (E) (A) (A) (E) (E) (A) (E)
                 (E) (A) (A) (E) (E) (E) (E) (E) (E) (E) (E) (A)
                 (A) (A) (A) (E) (E) (E) (E) (A) (A) (E) (E) (E)
                 (E) (A) (A) (E) (E) (A) (E) (E) (A) (E) (E) (E)
                 (E) (A) (E) (E) (A) (A) (A)
 The electronic state of the initial guess is 1-A.
 Generating alternative initial guess.
 Harris functional with IExCor= 1009 diagonalized for initial guess.
 ExpMin= 2.36D-02 ExpMax= 4.58D+04 ExpMxC= 4.42D+02 IAcc=3 IRadAn=         5 AccDes= 0.00D+00
 HarFok:  IExCor= 1009 AccDes= 0.00D+00 IRadAn=         5 IDoV= 1
 ScaDFX=  1.000000  1.000000  1.000000  1.000000
 FoFCou: FMM=F IPFlag=           0 FMFlag=      100000 FMFlg1=           0
         NFxFlg=           0 DoJE=T BraDBF=F KetDBF=T FulRan=T
         Omega=  0.000000  0.000000  1.000000  0.000000  0.000000 ICntrl=     500 IOpCl=  0
         NMat0=    1 NMatS0=    1 NMatT0=    0 NMatD0=    1 NMtDS0=    0 NMtDT0=    0
         I1Cent=           4 NGrid=           0.
 Petite list used in FoFCou.
 DSYEVD returned Info=         873 IAlg= 4 N=   436 NDim=   436 NE2=     2461365 trying DSYEV.
 Harris En= -96.2376133451010    
 Leave Link  401 at Thu Feb 26 01:49:36 2015, MaxMem= 1073741824 cpu:      19.4
 (Enter /apps/gaussian/g09_c01/g09/l502.exe)
 Closed shell SCF:
 Requested convergence on RMS density matrix=1.00D-08 within 128 cycles.
 Requested convergence on MAX density matrix=1.00D-06.
 Requested convergence on             energy=1.00D-06.
 No special actions if energy rises.
 Using DIIS extrapolation, IDIIS=  1040.
 Integral symmetry usage will be decided dynamically.
       189751 words used for storage of precomputed grid.
 IEnd=     1091081 IEndB=     1091081 NGot=  1073741824 MDV=  1072959524
 LenX=  1072959524 LenY=  1072667384
 Fock matrices will be formed incrementally for  20 cycles.

 Cycle   1  Pass 1  IDiag  1:
 FoFCou: FMM=F IPFlag=           0 FMFlag=      100000 FMFlg1=           0
         NFxFlg=           0 DoJE=F BraDBF=F KetDBF=F FulRan=T
         Omega=  0.000000  0.000000  1.000000  0.000000  0.000000 ICntrl=       0 IOpCl=  0
         NMat0=    1 NMatS0=    1 NMatT0=    0 NMatD0=    1 NMtDS0=    0 NMtDT0=    0
         I1Cent=           0 NGrid=           0.
 Petite list used in FoFCou.
 E= -96.1421027600870    
 DIIS: error= 1.52D-03 at cycle   1 NSaved=   1.
 NSaved= 1 IEnMin= 1 EnMin= -96.1421027600870     IErMin= 1 ErrMin= 1.52D-03
 ErrMax= 1.52D-03 EMaxC= 1.00D-01 BMatC= 4.48D-04 BMatP= 4.48D-04
 IDIUse=3 WtCom= 9.85D-01 WtEn= 1.52D-02
 Coeff-Com:  0.100D+01
 Coeff-En:   0.100D+01
 Coeff:      0.100D+01
 Gap=     0.804 Goal=   None    Shift=    0.000
 DSYEVD returned Info=         873 IAlg= 4 N=   436 NDim=   436 NE2=     2460245 trying DSYEV.
 GapD=    0.804 DampG=2.000 DampE=1.000 DampFc=2.0000 IDamp=-1.
 RMSDP=4.04D-05 MaxDP=3.55D-03              OVMax= 4.55D-03

 Cycle   2  Pass 1  IDiag  1:
 RMSU=  2.84D-05    CP:  1.00D+00
 E= -96.1422534636088     Delta-E=       -0.000150703522 Rises=F Damp=F
 DIIS: error= 5.92D-04 at cycle   2 NSaved=   2.
 NSaved= 2 IEnMin= 2 EnMin= -96.1422534636088     IErMin= 2 ErrMin= 5.92D-04
 ErrMax= 5.92D-04 EMaxC= 1.00D-01 BMatC= 5.45D-05 BMatP= 4.48D-04
 IDIUse=3 WtCom= 9.94D-01 WtEn= 5.92D-03
 Coeff-Com:  0.165D+00 0.835D+00
 Coeff-En:   0.000D+00 0.100D+01
 Coeff:      0.164D+00 0.836D+00
 Gap=     0.434 Goal=   None    Shift=    0.000
 DSYEVD returned Info=       96139 IAlg= 4 N=   436 NDim=   436 NE2=     2460245 trying DSYEV.
 RMSDP=1.44D-05 MaxDP=1.03D-03 DE=-1.51D-04 OVMax= 2.73D-03

 Cycle   3  Pass 1  IDiag  1:
 RMSU=  9.92D-06    CP:  1.00D+00  9.80D-01
 E= -96.1422682280603     Delta-E=       -0.000014764451 Rises=F Damp=F
 DIIS: error= 5.02D-04 at cycle   3 NSaved=   3.
 NSaved= 3 IEnMin= 3 EnMin= -96.1422682280603     IErMin= 3 ErrMin= 5.02D-04
 ErrMax= 5.02D-04 EMaxC= 1.00D-01 BMatC= 3.66D-05 BMatP= 5.45D-05
 IDIUse=3 WtCom= 9.95D-01 WtEn= 5.02D-03
 Coeff-Com: -0.757D-02 0.450D+00 0.558D+00
 Coeff-En:   0.000D+00 0.404D+00 0.596D+00
 Coeff:     -0.753D-02 0.450D+00 0.558D+00
 Gap=     0.434 Goal=   None    Shift=    0.000
 DSYEVD returned Info=         873 IAlg= 4 N=   436 NDim=   436 NE2=     2460245 trying DSYEV.
 RMSDP=6.38D-06 MaxDP=4.62D-04 DE=-1.48D-05 OVMax= 1.36D-03

 Cycle   4  Pass 1  IDiag  1:
 RMSU=  1.40D-06    CP:  1.00D+00  9.94D-01  5.84D-01
 E= -96.1422970502850     Delta-E=       -0.000028822225 Rises=F Damp=F
 DIIS: error= 4.90D-05 at cycle   4 NSaved=   4.
 NSaved= 4 IEnMin= 4 EnMin= -96.1422970502850     IErMin= 4 ErrMin= 4.90D-05
 ErrMax= 4.90D-05 EMaxC= 1.00D-01 BMatC= 2.03D-07 BMatP= 3.66D-05
 IDIUse=1 WtCom= 1.00D+00 WtEn= 0.00D+00
 Coeff-Com: -0.434D-02 0.184D+00 0.239D+00 0.581D+00
 Coeff:     -0.434D-02 0.184D+00 0.239D+00 0.581D+00
 Gap=     0.434 Goal=   None    Shift=    0.000
 DSYEVD returned Info=       96139 IAlg= 4 N=   436 NDim=   436 NE2=     2460245 trying DSYEV.
 RMSDP=6.12D-07 MaxDP=4.22D-05 DE=-2.88D-05 OVMax= 1.79D-04

 Cycle   5  Pass 1  IDiag  1:
 RMSU=  3.96D-07    CP:  1.00D+00  9.95D-01  5.74D-01  8.96D-01
 E= -96.1422972184212     Delta-E=       -0.000000168136 Rises=F Damp=F
 DIIS: error= 9.35D-06 at cycle   5 NSaved=   5.
 NSaved= 5 IEnMin= 5 EnMin= -96.1422972184212     IErMin= 5 ErrMin= 9.35D-06
 ErrMax= 9.35D-06 EMaxC= 1.00D-01 BMatC= 1.13D-08 BMatP= 2.03D-07
 IDIUse=1 WtCom= 1.00D+00 WtEn= 0.00D+00
 Coeff-Com: -0.255D-03-0.644D-02-0.354D-02 0.182D+00 0.828D+00
 Coeff:     -0.255D-03-0.644D-02-0.354D-02 0.182D+00 0.828D+00
 Gap=     0.434 Goal=   None    Shift=    0.000
 DSYEVD returned Info=         873 IAlg= 4 N=   436 NDim=   436 NE2=     2460245 trying DSYEV.
 RMSDP=1.80D-07 MaxDP=2.51D-05 DE=-1.68D-07 OVMax= 2.91D-05

 Cycle   6  Pass 1  IDiag  1:
 RMSU=  6.93D-08    CP:  1.00D+00  9.94D-01  5.79D-01  9.56D-01  8.97D-01
 E= -96.1422972283120     Delta-E=       -0.000000009891 Rises=F Damp=F
 DIIS: error= 1.60D-06 at cycle   6 NSaved=   6.
 NSaved= 6 IEnMin= 6 EnMin= -96.1422972283120     IErMin= 6 ErrMin= 1.60D-06
 ErrMax= 1.60D-06 EMaxC= 1.00D-01 BMatC= 1.94D-10 BMatP= 1.13D-08
 IDIUse=1 WtCom= 1.00D+00 WtEn= 0.00D+00
 Coeff-Com:  0.450D-04-0.541D-02-0.636D-02 0.385D-01 0.211D+00 0.762D+00
 Coeff:      0.450D-04-0.541D-02-0.636D-02 0.385D-01 0.211D+00 0.762D+00
 Gap=     0.434 Goal=   None    Shift=    0.000
 DSYEVD returned Info=       96139 IAlg= 4 N=   436 NDim=   436 NE2=     2460245 trying DSYEV.
 RMSDP=1.67D-08 MaxDP=1.71D-06 DE=-9.89D-09 OVMax= 4.11D-06

 Cycle   7  Pass 1  IDiag  1:
 RMSU=  1.02D-08    CP:  1.00D+00  9.94D-01  5.79D-01  9.59D-01  8.98D-01
                    CP:  9.70D-01
 E= -96.1422972284861     Delta-E=       -0.000000000174 Rises=F Damp=F
 DIIS: error= 9.90D-08 at cycle   7 NSaved=   7.
 NSaved= 7 IEnMin= 7 EnMin= -96.1422972284861     IErMin= 7 ErrMin= 9.90D-08
 ErrMax= 9.90D-08 EMaxC= 1.00D-01 BMatC= 1.64D-12 BMatP= 1.94D-10
 IDIUse=1 WtCom= 1.00D+00 WtEn= 0.00D+00
 Coeff-Com:  0.746D-05-0.357D-03-0.629D-03-0.906D-03-0.253D-02 0.473D-01
 Coeff-Com:  0.957D+00
 Coeff:      0.746D-05-0.357D-03-0.629D-03-0.906D-03-0.253D-02 0.473D-01
 Coeff:      0.957D+00
 Gap=     0.434 Goal=   None    Shift=    0.000
 DSYEVD returned Info=         873 IAlg= 4 N=   436 NDim=   436 NE2=     2460245 trying DSYEV.
 RMSDP=3.82D-09 MaxDP=4.86D-07 DE=-1.74D-10 OVMax= 3.52D-07

 SCF Done:  E(RPBE1PBE) =  -96.1422972285     A.U. after    7 cycles
             Convg  =    0.3822D-08             -V/T =  2.0051
 KE= 9.565413915545D+01 PE=-3.141362662022D+02 EE= 7.431493841090D+01
 Leave Link  502 at Thu Feb 26 01:51:37 2015, MaxMem= 1073741824 cpu:     965.5
 (Enter /apps/gaussian/g09_c01/g09/l801.exe)
 Range of M.O.s used for correlation:     1   436
 NBasis=   436 NAE=     9 NBE=     9 NFC=     0 NFV=     0
 NROrb=    436 NOA=     9 NOB=     9 NVA=   427 NVB=   427

 **** Warning!!: The largest alpha MO coefficient is  0.15116423D+03

 Leave Link  801 at Thu Feb 26 01:51:37 2015, MaxMem= 1073741824 cpu:       0.1
 (Enter /apps/gaussian/g09_c01/g09/l1002.exe)
 Minotr:  Closed shell wavefunction.
          Direct CPHF calculation.
          Differentiating once with respect to electric field.
                with respect to dipole field.
          Electric field/nuclear overlap derivatives assumed to be zero.
          Using symmetry in CPHF.
          Requested convergence is 1.0D-08 RMS, and 1.0D-07 maximum.
[...]
      5        7           0.000000000    0.000000000   -0.000000161
      6        1          -0.000000047   -0.000000256   -0.000000015
      7        1           0.000000245    0.000000087   -0.000000015
      8        1          -0.000000198    0.000000169   -0.000000015
 -------------------------------------------------------------------
 Cartesian Forces:  Max     0.000000437 RMS     0.000000201
 Force constants in Cartesian coordinates: 
                1             2             3             4             5 
      1  0.631978D+00
      2  0.000000D+00  0.631978D+00
      3  0.000000D+00  0.000000D+00  0.432409D+00
      4 -0.523446D-01 -0.242293D-01 -0.793077D-02  0.483473D-01
      5 -0.242293D-01 -0.310466D+00 -0.852042D-01  0.257763D-01  0.322946D+00
      6 -0.652030D-02 -0.700466D-01 -0.730484D-01  0.814454D-02  0.875034D-01
      7 -0.224952D+00  0.123884D+00 -0.698236D-01  0.416531D-02 -0.355475D-02
      8  0.123884D+00 -0.137858D+00  0.494704D-01  0.230119D-01 -0.125312D-01
      9 -0.574021D-01  0.406701D-01 -0.730484D-01  0.916846D-02 -0.439232D-02
     10 -0.266919D+00 -0.996549D-01  0.777545D-01  0.681164D-04  0.118924D-02
     11 -0.996551D-01 -0.958917D-01  0.357338D-01 -0.253774D-01 -0.843399D-02
     12  0.639224D-01  0.293765D-01 -0.730485D-01 -0.982151D-02 -0.262520D-02
     13 -0.974207D-01  0.000000D+00  0.000000D+00 -0.828502D-03  0.710774D-03
     14  0.000000D+00 -0.974206D-01  0.000000D+00  0.710751D-03  0.674396D-02
     15  0.000000D+00  0.000000D+00 -0.173621D+00  0.366948D-03  0.394402D-02
     16  0.131309D-03  0.579681D-03 -0.208529D-03  0.372795D-03  0.632753D-04
     17  0.579706D-03  0.630714D-02 -0.224238D-02  0.632495D-04  0.104675D-02
     18 -0.318513D-02 -0.342330D-01 -0.132144D-01  0.210262D-03  0.225963D-02
     19  0.526525D-02  0.238435D-02  0.204613D-02  0.207830D-03  0.296020D-03
     20  0.238442D-02  0.117323D-02  0.940521D-03  0.792416D-03  0.249027D-03
     21  0.312391D-01  0.143581D-01 -0.132144D-01  0.291292D-03 -0.776251D-03
     22  0.426116D-02 -0.296410D-02 -0.183766D-02  0.118412D-04 -0.251423D-03
     23 -0.296404D-02  0.217729D-02  0.130170D-02 -0.747865D-03  0.445044D-03
     24 -0.280541D-01  0.198749D-01 -0.132144D-01 -0.429179D-03 -0.709184D-03
                6             7             8             9            10 
      6  0.881794D-01
      7  0.263727D-02  0.231974D+00
      8  0.981828D-02 -0.131793D+00  0.139320D+00
      9  0.485956D-02  0.717079D-01 -0.508051D-01  0.881794D-01
     10 -0.780371D-03 -0.167822D-01 -0.109178D-01  0.718425D-02  0.276619D+00
     11  0.101363D-01  0.156488D-01  0.841636D-02 -0.719308D-02  0.106017D+00
     12  0.485956D-02 -0.838808D-02 -0.574396D-02  0.485956D-02 -0.798524D-01
     13 -0.348383D-02  0.423531D-02 -0.363437D-02 -0.306852D-01  0.546644D-02
     14 -0.374436D-01 -0.363441D-02  0.168018D-02  0.217389D-01  0.292359D-02
     15 -0.208662D-01  0.323217D-02 -0.228985D-02 -0.208662D-01 -0.359921D-02
     16  0.174242D-03 -0.232579D-03 -0.538146D-03 -0.709899D-03 -0.959606D-04
     17  0.187251D-02 -0.417499D-04  0.689436D-03  0.596620D-03  0.189183D-03
     18 -0.662473D-02 -0.817899D-03  0.135859D-03  0.132022D-02  0.828761D-03
     19 -0.161738D-03  0.769448D-03  0.310460D-03 -0.798129D-03  0.933045D-03
     20 -0.913100D-03 -0.185981D-03 -0.312562D-03  0.472035D-03  0.260186D-03
     21  0.132022D-02 -0.399582D-03  0.726272D-03  0.132063D-02 -0.206202D-02
     22 -0.972951D-05  0.823472D-03 -0.323448D-03  0.153452D-02  0.710034D-03
     23 -0.927217D-03 -0.323474D-03  0.596070D-03 -0.108715D-02 -0.607259D-05
     24  0.132063D-02  0.185176D-02 -0.131190D-02 -0.662473D-02  0.526607D-03
               11            12            13            14            15 
     11  0.946741D-01
     12 -0.366983D-01  0.881794D-01
     13  0.292363D-02  0.341690D-01  0.733320D+00
     14  0.449058D-03  0.157047D-01  0.000000D+00  0.733320D+00
     15 -0.165425D-02 -0.208662D-01  0.000000D+00  0.000000D+00  0.534108D+00
     16  0.685625D-03  0.807858D-03 -0.652750D-01 -0.280889D-01 -0.103969D-01
     17  0.552846D-03  0.455183D-03 -0.280888D-01 -0.364573D+00 -0.111741D+00
     18 -0.170877D-04  0.132063D-02 -0.110074D-01 -0.118306D+00 -0.992961D-01
     19  0.260211D-03 -0.170876D-02 -0.314074D+00 -0.115556D+00  0.101969D+00
     20  0.486496D-03 -0.785356D-03 -0.115556D+00 -0.115774D+00  0.468663D-01
     21 -0.947721D-03 -0.662473D-02  0.107959D+00  0.496201D-01 -0.992961D-01
     22 -0.502468D-03  0.871637D-03 -0.265423D+00  0.143644D+00 -0.915718D-01
     23 -0.253178D-03  0.316481D-03  0.143645D+00 -0.164425D+00  0.648744D-01
     24  0.640392D-03  0.132022D-02 -0.969521D-01  0.686855D-01 -0.992962D-01
               16            17            18            19            20 
     16  0.605051D-01
     17  0.304440D-01  0.384894D+00
     18  0.113391D-01  0.121873D+00  0.105602D+00
     19 -0.426911D-03  0.319259D-04 -0.606104D-03  0.330162D+00
     20 -0.321992D-01 -0.117344D-01  0.143228D-01  0.125243D+00  0.115237D+00
     21 -0.137128D-01 -0.417774D-02  0.544644D-02 -0.111215D+00 -0.511165D-01
     22  0.502131D-02 -0.317746D-02  0.323839D-02 -0.228364D-01  0.192611D-01
     23  0.290537D-01 -0.171826D-01  0.139645D-01 -0.129701D-01  0.106751D-01
     24  0.127070D-01 -0.663651D-02  0.544644D-02  0.104744D-01 -0.978680D-02
               21            22            23            24 
     21  0.105602D+00
     22 -0.121009D-01  0.277432D+00
     23 -0.768632D-02 -0.155687D+00  0.167968D+00
     24  0.544644D-02  0.998755D-01 -0.707564D-01  0.105602D+00
 Red2BG is reusing G-inverse.
 Force constants in internal coordinates: 
                1             2             3             4             5 
      1  0.354355D+00
      2  0.143403D-02  0.354355D+00
      3  0.143406D-02  0.143401D-02  0.354355D+00
      4  0.338585D-02  0.338581D-02  0.338573D-02  0.287814D+00
      5 -0.150332D-02  0.320207D-03  0.320002D-03  0.565145D-02  0.433319D+00
      6  0.320201D-03  0.320022D-03 -0.150329D-02  0.565129D-02  0.234409D-02
      7  0.320013D-03 -0.150332D-02  0.320207D-03  0.565131D-02  0.234406D-02
      8  0.367446D-02  0.367473D-02 -0.132533D-02 -0.257168D-01  0.487715D-04
      9  0.367474D-02 -0.132531D-02  0.367444D-02 -0.257168D-01  0.488901D-04
     10  0.124830D-02 -0.375249D-02 -0.375243D-02  0.267103D-01  0.253303D-02
     11 -0.132531D-02  0.367445D-02  0.367474D-02 -0.257168D-01  0.987268D-03
     12 -0.375239D-02  0.124828D-02 -0.375249D-02  0.267103D-01 -0.183028D-02
     13 -0.375251D-02 -0.375239D-02  0.124835D-02  0.267104D-01 -0.182960D-02
     14  0.631332D-03  0.910714D-04  0.907126D-04  0.146223D-01 -0.477405D-02
     15  0.910557D-04  0.907228D-04  0.631319D-03  0.146224D-01 -0.425798D-02
     16  0.907146D-04  0.631309D-03  0.910803D-04  0.146223D-01 -0.425784D-02
     17 -0.375460D-03 -0.119321D-03 -0.375349D-03 -0.156478D-01  0.699196D-02
     18 -0.375351D-03 -0.375458D-03 -0.119311D-03 -0.156478D-01  0.699473D-02
     19 -0.119315D-03 -0.375348D-03 -0.375476D-03 -0.156478D-01  0.235204D-03
     20  0.000000D+00 -0.295623D-02  0.295629D-02  0.000000D+00  0.190877D-05
     21  0.141884D-04 -0.298427D-02  0.297026D-02  0.000000D+00  0.274797D-02
     22 -0.138621D-04 -0.297029D-02  0.298432D-02  0.000000D+00 -0.274777D-02
     23  0.297026D-02  0.141846D-04 -0.298430D-02  0.000000D+00  0.467557D-03
     24  0.298433D-02 -0.138568D-04 -0.297033D-02  0.000000D+00  0.321361D-02
     25  0.295628D-02  0.000000D+00 -0.295627D-02  0.000000D+00 -0.228212D-02
     26 -0.297030D-02  0.298432D-02 -0.138416D-04  0.000000D+00 -0.464279D-03
     27 -0.295623D-02  0.295628D-02  0.000000D+00  0.000000D+00  0.228178D-02
     28 -0.298428D-02  0.297025D-02  0.141884D-04  0.000000D+00 -0.321396D-02
                6             7             8             9            10 
      6  0.433319D+00
      7  0.234404D-02  0.433319D+00
      8  0.987269D-03  0.488919D-04  0.525971D-01
      9  0.487777D-04  0.987268D-03  0.120212D-01  0.525971D-01
     10 -0.183029D-02 -0.182959D-02 -0.455187D-01 -0.455172D-01  0.131800D+00
     11  0.488782D-04  0.487727D-04  0.120212D-01  0.120212D-01  0.114355D-01
     12 -0.182956D-02  0.253302D-02 -0.455172D-01  0.114355D-01 -0.245624D-01
     13  0.253301D-02 -0.183028D-02  0.114355D-01 -0.455187D-01 -0.245624D-01
     14 -0.425789D-02 -0.425799D-02 -0.393587D-02 -0.393585D-02  0.171136D-01
     15 -0.477404D-02 -0.425785D-02  0.349869D-02 -0.393587D-02 -0.628552D-02
     16 -0.425797D-02 -0.477404D-02 -0.393584D-02  0.349869D-02 -0.628609D-02
     17  0.699474D-02  0.235207D-03  0.604206D-03  0.347139D-02 -0.459541D-02
     18  0.235211D-03  0.699196D-02  0.347139D-02  0.604104D-03 -0.459517D-02
     19  0.699198D-02  0.699473D-02  0.604103D-03  0.604207D-03  0.433008D-02
     20 -0.228213D-02  0.228178D-02 -0.574769D-02  0.574702D-02  0.000000D+00
     21  0.467527D-03 -0.321396D-02 -0.527677D-02  0.480528D-02  0.152475D-02
     22  0.321362D-02 -0.464277D-03 -0.480596D-02  0.527621D-02 -0.152313D-02
     23 -0.321394D-02  0.274797D-02  0.480528D-02  0.470965D-03  0.734603D-02
     24 -0.464291D-03 -0.274777D-02  0.527619D-02 -0.470771D-03  0.887001D-02
     25  0.228181D-02  0.190817D-05  0.574701D-02  0.000000D+00  0.582214D-02
     26 -0.274776D-02  0.321361D-02 -0.470761D-03 -0.480596D-02 -0.734634D-02
     27  0.189106D-05 -0.228212D-02  0.000000D+00 -0.574769D-02 -0.582236D-02
     28  0.274799D-02  0.467555D-03  0.470970D-03 -0.527677D-02 -0.887023D-02
               11            12            13            14            15 
     11  0.525971D-01
     12 -0.455187D-01  0.131800D+00
     13 -0.455172D-01 -0.245624D-01  0.131800D+00
     14  0.349869D-02 -0.628551D-02 -0.628609D-02  0.100200D+00
     15 -0.393584D-02 -0.628610D-02  0.171136D-01 -0.183575D-01  0.100200D+00
     16 -0.393587D-02  0.171136D-01 -0.628553D-02 -0.183575D-01 -0.183575D-01
     17  0.604101D-03  0.433007D-02 -0.459515D-02 -0.406291D-01 -0.406294D-01
     18  0.604207D-03 -0.459541D-02  0.433008D-02 -0.406294D-01  0.133218D-01
     19  0.347140D-02 -0.459518D-02 -0.459540D-02  0.133218D-01 -0.406291D-01
     20  0.000000D+00 -0.582235D-02  0.582211D-02  0.000000D+00 -0.248503D-02
     21  0.470966D-03 -0.887022D-02  0.734602D-02  0.402064D-02  0.153564D-02
     22 -0.470759D-03 -0.734634D-02  0.886999D-02 -0.402097D-02  0.555659D-02
     23 -0.527677D-02  0.152474D-02 -0.887022D-02  0.153564D-02 -0.555662D-02
     24 -0.480597D-02 -0.152313D-02 -0.734631D-02  0.555658D-02 -0.153594D-02
     25 -0.574769D-02  0.000000D+00 -0.582234D-02 -0.248502D-02  0.248501D-02
     26  0.527620D-02  0.887000D-02 -0.152313D-02 -0.153594D-02 -0.402098D-02
     27  0.574701D-02  0.582213D-02  0.000000D+00  0.248500D-02  0.000000D+00
     28  0.480528D-02  0.734601D-02  0.152475D-02 -0.555661D-02  0.402065D-02
               16            17            18            19            20 
     16  0.100200D+00
     17  0.133218D-01  0.538663D-01
     18 -0.406291D-01  0.941742D-02  0.538663D-01
     19 -0.406294D-01  0.941742D-02  0.941742D-02  0.538663D-01
     20  0.248500D-02 -0.717846D-02  0.717875D-02  0.000000D+00  0.142792D-01
     21 -0.555662D-02  0.603235D-02  0.573272D-03 -0.660526D-02  0.345863D-02
     22 -0.153595D-02 -0.573133D-03 -0.603206D-02  0.660553D-02  0.345869D-02
     23  0.402065D-02 -0.660527D-02  0.603234D-02  0.573272D-03  0.399345D-02
     24 -0.402097D-02  0.660554D-02 -0.573131D-03 -0.603205D-02 -0.682714D-02
     25  0.000000D+00  0.000000D+00 -0.717846D-02  0.717873D-02 -0.682708D-02
     26  0.555659D-02 -0.603206D-02  0.660554D-02 -0.573130D-03  0.399351D-02
     27 -0.248503D-02  0.717875D-02  0.000000D+00 -0.717846D-02 -0.682708D-02
     28  0.153565D-02  0.573269D-03 -0.660526D-02  0.603233D-02 -0.682702D-02
               21            22            23            24            25 
     21  0.149113D-01
     22  0.377476D-02  0.149115D-01
     23 -0.714315D-02 -0.745927D-02  0.149113D-01
     24  0.430957D-02 -0.714321D-02  0.377475D-02  0.149115D-01
     25 -0.682701D-02  0.399351D-02  0.345863D-02  0.345869D-02  0.142792D-01
     26 -0.745928D-02 -0.714321D-02  0.430957D-02 -0.714321D-02 -0.682715D-02
     27  0.399345D-02 -0.682714D-02 -0.682702D-02  0.399350D-02 -0.682708D-02
     28 -0.714314D-02  0.430957D-02 -0.714315D-02 -0.745928D-02  0.399344D-02
               26            27            28 
     26  0.149115D-01
     27  0.345869D-02  0.142792D-01
     28  0.377476D-02  0.345863D-02  0.149113D-01
 Leave Link  716 at Thu Feb 26 05:30:50 2015, MaxMem= 1073741824 cpu:       0.2
 (Enter /apps/gaussian/g09_c01/g09/l9999.exe)
 1\1\GINC-CX1-1-8-1\Freq\RPBE1PBE\Aug-CC-pVQZ\C1H6N1(1+)\JMF02\26-Feb-2
 015\0\\#p opt(VeryTight,CalcAll,Raman) Integral(Grid=UltraFine) PBE1PB
 E/AUG-cc-pVQZ\\Autjob by noodles.sh | Great noodly basis sets\\1,1\C,-
 0.0000000526,0.0000000526,-0.7908416119\H,-0.0954694501,-1.025926256,-
 1.1353465767\H,-0.8407435996,0.5956421305,-1.1353465767\H,0.9362128918
 ,0.4302842834,-1.1353465767\N,-0.0000000526,0.0000000526,0.7059371523\
 H,0.0880458883,0.9461963781,1.0792810418\H,-0.8634530779,-0.3968480886
 ,1.0792810418\H,0.7754070317,-0.5493481316,1.0792810418\\Version=EM64L
 -G09RevC.01\State=1-A\HF=-96.1422981\RMSD=6.871e-09\RMSF=2.010e-07\Zer
 oPoint=0.0795614\Thermal=0.0830185\Dipole=0.,0.,0.8589817\DipoleDeriv=
 0.0780709,0.000001,0.0000026,0.0000003,0.0780681,0.0000016,0.,-0.00000
 01,0.5151345,0.1221292,-0.0077002,0.0010526,-0.0076994,0.0400928,0.011
 3178,0.0033558,0.0360588,0.0555758,0.06727,0.0393724,0.0092749,0.03937
 23,0.0949513,-0.0065706,0.0295502,-0.020936,0.0555756,0.0539321,-0.031
 6732,-0.0103289,-0.0316722,0.1082881,-0.0047478,-0.0329059,-0.0151231,
 0.0555758,-0.1502788,0.000002,0.000002,0.000001,-0.1502784,0.000001,-0
 .0000018,0.0000019,-0.3637866,0.2471471,0.0054705,0.0042332,0.0054713,
 0.3054374,0.0454894,0.0032777,0.035224,0.2273076,0.2956031,0.0225045,-
 0.0415125,0.0225051,0.2569819,-0.0190792,-0.0321434,-0.0147735,0.22730
 83,0.2861273,-0.0279767,0.0372784,-0.0279765,0.2664585,-0.026411,0.028
 8666,-0.0204512,0.2273082\Polar=19.0996358,0.0000022,19.0996073,0.0000
 255,-0.0000005,22.0829732\PolarDeriv=-0.8727809,-3.0677867,0.8738051,2
 .231954,-0.0015262,0.0008832,-3.0652872,0.8757242,3.0652074,0.0008777,
 2.2323731,-0.0009979,2.4925684,0.0003196,2.4919826,-0.0008724,0.000050
 7,-3.0540343,-0.2048055,-0.6062521,-0.4491975,-0.8126099,-0.1081153,-0
 .2237722,-1.0613996,-0.412582,-6.0158981,-0.108724,-1.9836227,-2.40548
 46,-0.7949156,-0.0825937,-1.6680969,-0.1344515,-1.4427612,-1.5172521,-
 3.897459,1.8335138,-1.9056053,-1.5954646,0.5605476,-1.9722793,2.093198
 3,-1.531239,2.0140781,0.5602035,-1.199649,1.3966918,-1.3789278,0.41947
 31,-1.084963,-1.1819554,0.8375894,-1.516645,4.9025165,1.5814018,1.5535
 179,-1.785839,-0.4515671,2.1955917,1.7745044,1.1408704,1.1953832,-0.45
 16627,-1.0110012,1.0094133,-1.5216106,-0.3372979,-0.9420169,1.3170211,
 0.6052314,-1.5167729,0.6039126,2.1173521,-0.6032256,-2.1974436,0.00124
 59,-0.0003574,2.1170432,-0.6033528,-2.1174862,-0.0007128,-2.1981663,0.
 0006601,-1.8373995,0.0001898,-1.8378155,0.0003202,-0.0001602,1.8742326
 ,0.192695,0.6235909,0.3152455,0.755035,0.1183128,0.2266082,0.8696932,0
 .2924703,4.5948233,0.1187382,2.0183924,2.4359364,0.5723075,0.0822184,1
 .454794,0.1375044,1.4780527,1.9102277,-3.805248,-1.1408694,-1.1818177,
 1.8047124,0.4874432,-2.2230063,-1.2438718,-0.9573359,-1.0479962,0.4877
 046,0.9682749,-1.0218747,1.3058185,0.3406811,0.7214354,-1.3489101,-0.6
 19866,1.9104113,3.0811535,-1.3409469,1.397303,1.5996722,-0.6063475,1.9
 962884,-1.4838644,1.1954426,-1.6882365,-0.6064386,1.1734162,-1.4143428
 ,1.162134,-0.4229937,0.8646975,1.2113325,-0.8581479,1.9099173\HyperPol
 ar=0.4512926,1.579702,-0.4515807,-1.5782359,-2.5089836,0.0001137,-2.50
 89497,0.0002093,0.0000049,6.9570243\PG=C03 [C3(C1N1),X(H6)]\NImag=0\\0
 .63197843,-0.00000029,0.63197838,-0.00000020,-0.00000018,0.43240921,-0
 .05234465,-0.02422929,-0.00793077,0.04834731,-0.02422934,-0.31046580,-
 0.08520416,0.02577625,0.32294616,-0.00652030,-0.07004659,-0.07304842,0
 .00814454,0.08750340,0.08817940,-0.22495231,0.12388446,-0.06982360,0.0
 0416531,-0.00355475,0.00263727,0.23197356,0.12388447,-0.13785812,0.049
 47037,0.02301186,-0.01253118,0.00981828,-0.13179292,0.13931991,-0.0574
 0205,0.04067009,-0.07304843,0.00916846,-0.00439232,0.00485956,0.071707
 90,-0.05080508,0.08817940,-0.26691860,-0.09965491,0.07775446,0.0000681
 2,0.00118924,-0.00078037,-0.01678224,-0.01091779,0.00718425,0.27661934
 ,-0.09965511,-0.09589166,0.03573383,-0.02537737,-0.00843399,0.01013627
 ,0.01564882,0.00841636,-0.00719308,0.10601667,0.09467413,0.06392238,0.
 02937653,-0.07304846,-0.00982151,-0.00262520,0.00485956,-0.00838808,-0
 .00574396,0.00485956,-0.07985244,-0.03669832,0.08817940,-0.09742075,-0
 .00000007,0.00000013,-0.00082850,0.00071077,-0.00348383,0.00423531,-0.
 00363437,-0.03068516,0.00546644,0.00292363,0.03416899,0.73331996,0.000
 00003,-0.09742055,0.00000041,0.00071075,0.00674396,-0.03744357,-0.0036
 3441,0.00168018,0.02173886,0.00292359,0.00044906,0.01570468,-0.0000001
 8,0.73331961,0.00000025,0.00000014,-0.17362083,0.00036695,0.00394402,-
 0.02086621,0.00323217,-0.00228985,-0.02086619,-0.00359921,-0.00165425,
 -0.02086620,-0.00000009,-0.00000017,0.53410790,0.00013131,0.00057968,-
 0.00020853,0.00037279,0.00006328,0.00017424,-0.00023258,-0.00053815,-0
 .00070990,-0.00009596,0.00068563,0.00080786,-0.06527497,-0.02808887,-0
 .01039692,0.06050509,0.00057971,0.00630714,-0.00224238,0.00006325,0.00
 104675,0.00187251,-0.00004175,0.00068944,0.00059662,0.00018918,0.00055
 285,0.00045518,-0.02808880,-0.36457342,-0.11174057,0.03044400,0.384894
 23,-0.00318513,-0.03423296,-0.01321443,0.00021026,0.00225963,-0.006624
 73,-0.00081790,0.00013586,0.00132022,0.00082876,-0.00001709,0.00132063
 ,-0.01100738,-0.11830576,-0.09929610,0.01133912,0.12187294,0.10560154,
 0.00526525,0.00238435,0.00204613,0.00020783,0.00029602,-0.00016174,0.0
 0076945,0.00031046,-0.00079813,0.00093305,0.00026021,-0.00170876,-0.31
 407448,-0.11555551,0.10196871,-0.00042691,0.00003193,-0.00060610,0.330
 16222,0.00238442,0.00117323,0.00094052,0.00079242,0.00024903,-0.000913
 10,-0.00018598,-0.00031256,0.00047203,0.00026019,0.00048650,-0.0007853
 6,-0.11555557,-0.11577383,0.04686631,-0.03219924,-0.01173443,0.0143228
 3,0.12524262,0.11523710,0.03123913,0.01435807,-0.01321437,0.00029129,-
 0.00077625,0.00132022,-0.00039958,0.00072627,0.00132063,-0.00206202,-0
 .00094772,-0.00662473,0.10795949,0.04962013,-0.09929614,-0.01371284,-0
 .00417774,0.00544644,-0.11121462,-0.05111650,0.10560154,0.00426116,-0.
 00296410,-0.00183766,0.00001184,-0.00025142,-0.00000973,0.00082347,-0.
 00032345,0.00153452,0.00071003,-0.00050247,0.00087164,-0.26542311,0.14
 364446,-0.09157178,0.00502131,-0.00317746,0.00323839,-0.02283640,0.019
 26111,-0.01210088,0.27743167,-0.00296404,0.00217729,0.00130170,-0.0007
 4786,0.00044504,-0.00092722,-0.00032347,0.00059607,-0.00108715,-0.0000
 0607,-0.00025318,0.00031648,0.14364453,-0.16442518,0.06487435,0.029053
 71,-0.01718265,0.01396454,-0.01297005,0.01067507,-0.00768632,-0.155686
 62,0.16796765,-0.02805405,0.01987487,-0.01321436,-0.00042918,-0.000709
 18,0.00132063,0.00185176,-0.00131190,-0.00662473,0.00052661,0.00064039
 ,0.00132022,-0.09695213,0.06868554,-0.09929616,0.01270699,-0.00663651,
 0.00544644,0.01047445,-0.00978680,0.00544644,0.09987550,-0.07075643,0.
 10560154\\0.,0.,0.00000028,-0.00000016,-0.00000041,-0.00000016,-0.0000
 0028,0.00000035,-0.00000016,0.00000044,0.00000007,-0.00000016,0.,0.,0.
 00000016,0.00000005,0.00000026,0.00000001,-0.00000025,-0.00000009,0.00
 000001,0.00000020,-0.00000017,0.00000001\\\@


 TOWERING GENIUS DISDAINS A BEATEN PATH.  IT SEEKS 
 REGIONS HITHERTO UNEXPLORED.

                                -- ABRAHAM LINCOLN
 Job cpu time:  1 days 12 hours 58 minutes 11.0 seconds.
 File lengths (MBytes):  RWF=    161 Int=      0 D2E=      0 Chk=     13 Scr=      1
 Normal termination of Gaussian 09 at Thu Feb 26 05:30:50 2015.
