 Entering Gaussian System, Link 0=g03
 Input=MA_PBEPBE_6-31gs.com
 Output=MA_PBEPBE_6-31gs.log
 Initial command:
 /apps/gaussian/g09_c01/g09/l1.exe /tmp/pbs.8910303.cx1b/Gau-20619.inp -scrdir=/tmp/pbs.8910303.cx1b/
 Entering Link 1 = /apps/gaussian/g09_c01/g09/l1.exe PID=     20625.
  
 Copyright (c) 1988,1990,1992,1993,1995,1998,2003,2009,2011,
            Gaussian, Inc.  All Rights Reserved.
  
 This is part of the Gaussian(R) 09 program.  It is based on
 the Gaussian(R) 03 system (copyright 2003, Gaussian, Inc.),
 the Gaussian(R) 98 system (copyright 1998, Gaussian, Inc.),
 the Gaussian(R) 94 system (copyright 1995, Gaussian, Inc.),
 the Gaussian 92(TM) system (copyright 1992, Gaussian, Inc.),
 the Gaussian 90(TM) system (copyright 1990, Gaussian, Inc.),
 the Gaussian 88(TM) system (copyright 1988, Gaussian, Inc.),
 the Gaussian 86(TM) system (copyright 1986, Carnegie Mellon
 University), and the Gaussian 82(TM) system (copyright 1983,
 Carnegie Mellon University). Gaussian is a federally registered
 trademark of Gaussian, Inc.
  
 This software contains proprietary and confidential information,
 including trade secrets, belonging to Gaussian, Inc.
  
 This software is provided under written license and may be
 used, copied, transmitted, or stored only in accord with that
 written license.
  
 The following legend is applicable only to US Government
 contracts under FAR:
  
                    RESTRICTED RIGHTS LEGEND
  
 Use, reproduction and disclosure by the US Government is
 subject to restrictions as set forth in subparagraphs (a)
 and (c) of the Commercial Computer Software - Restricted
 Rights clause in FAR 52.227-19.
  
 Gaussian, Inc.
 340 Quinnipiac St., Bldg. 40, Wallingford CT 06492
  
  
 ---------------------------------------------------------------
 Warning -- This program may not be used in any manner that
 competes with the business of Gaussian, Inc. or will provide
 assistance to any competitor of Gaussian, Inc.  The licensee
 of this program is prohibited from giving any competitor of
 Gaussian, Inc. access to this program.  By using this program,
 the user acknowledges that Gaussian, Inc. is engaged in the
 business of creating and licensing software in the field of
 computational chemistry and represents and warrants to the
 licensee that it is not a competitor of Gaussian, Inc. and that
 it will not use this program in any manner prohibited above.
 ---------------------------------------------------------------
  

 Cite this work as:
 Gaussian 09, Revision C.01,
 M. J. Frisch, G. W. Trucks, H. B. Schlegel, G. E. Scuseria, 
 M. A. Robb, J. R. Cheeseman, G. Scalmani, V. Barone, B. Mennucci, 
 G. A. Petersson, H. Nakatsuji, M. Caricato, X. Li, H. P. Hratchian, 
 A. F. Izmaylov, J. Bloino, G. Zheng, J. L. Sonnenberg, M. Hada, 
 M. Ehara, K. Toyota, R. Fukuda, J. Hasegawa, M. Ishida, T. Nakajima, 
 Y. Honda, O. Kitao, H. Nakai, T. Vreven, J. A. Montgomery, Jr., 
 J. E. Peralta, F. Ogliaro, M. Bearpark, J. J. Heyd, E. Brothers, 
 K. N. Kudin, V. N. Staroverov, T. Keith, R. Kobayashi, J. Normand, 
 K. Raghavachari, A. Rendell, J. C. Burant, S. S. Iyengar, J. Tomasi, 
 M. Cossi, N. Rega, J. M. Millam, M. Klene, J. E. Knox, J. B. Cross, 
 V. Bakken, C. Adamo, J. Jaramillo, R. Gomperts, R. E. Stratmann, 
 O. Yazyev, A. J. Austin, R. Cammi, C. Pomelli, J. W. Ochterski, 
 R. L. Martin, K. Morokuma, V. G. Zakrzewski, G. A. Voth, 
 P. Salvador, J. J. Dannenberg, S. Dapprich, A. D. Daniels, 
 O. Farkas, J. B. Foresman, J. V. Ortiz, J. Cioslowski, 
 and D. J. Fox, Gaussian, Inc., Wallingford CT, 2010.
 
 ******************************************
 Gaussian 09:  EM64L-G09RevC.01 23-Sep-2011
                26-Feb-2015 
 ******************************************
 %Chk=MA_PBEPBE_6-31gs.chk
 %Mem=8Gb
 %nproc=8
 Will use up to    8 processors via shared memory.
 ----------------------------------------------------------------------
 #p opt(VeryTight,CalcAll,Raman) Integral(Grid=UltraFine) PBEPBE/6-31g*
 ----------------------------------------------------------------------
 1/7=1,10=4,14=-1,18=20,19=15,26=3,38=1/1,3;
 2/9=110,12=2,17=6,18=5,40=1/2;
 3/5=1,6=6,7=1,11=2,16=1,25=1,30=1,71=2,74=1009,75=-5/1,2,3;
 4//1;
 5/5=2,38=5/2;
 8/6=4,10=90,11=11/1;
 10/13=10,15=4/2;
 11/6=3,8=1,9=11,15=111,16=1/1,2,10;
 10/6=1/2;
 6/7=2,8=2,9=2,10=2,18=1,28=1/1;
 7/10=1,25=1/1,2,3,16;
 1/7=1,10=4,14=-1,18=20,19=15/3(3);
 2/9=110/2;
 7/8=1,9=1,25=1,44=-1/16;
 99//99;
 2/9=110/2;
 3/5=1,6=6,7=1,11=2,16=1,25=1,30=1,71=2,74=1009,75=-5/1,2,3;
 4/5=5,16=3/1;
 5/5=2,38=5/2;
 8/6=4,10=90,11=11/1;
 10/13=10,15=4/2;
 11/6=3,8=1,9=11,15=111,16=1/1,2,10;
 10/6=1/2;
 7/10=1,25=1/1,2,3,16;
 1/7=1,10=4,14=-1,18=20,19=15/3(-9);
 2/9=110/2;
 6/7=2,8=2,9=2,10=2,18=1,19=2,28=1/1;
 7/8=1,9=1,25=1,44=-1/16;
 99//99;
 Leave Link    1 at Thu Feb 26 00:53:59 2015, MaxMem= 1073741824 cpu:       0.3
 (Enter /apps/gaussian/g09_c01/g09/l101.exe)
 ----------------------------------------------
 Autjob by noodles.sh | Great noodly basis sets
 ----------------------------------------------
 Charge =  1 Multiplicity = 1
 Symbolic Z-Matrix:
 C                     0.        0.       -0.80446 
 H                    -0.09587  -1.03096  -1.1445 
 H                    -0.8449    0.59851  -1.1445 
 H                     0.94078   0.43245  -1.1445 
 N                     0.        0.        0.71256 
 H                     0.08865   0.95193   1.09076 
 H                    -0.86872  -0.39919   1.09076 
 H                     0.78007  -0.55274   1.09076 
 
 NAtoms=      8 NQM=        0 NQMF=       0 NMMI=      8 NMMIF=      0
                NMic=       0 NMicF=      0.
                    Isotopes and Nuclear Properties:
 (Nuclear quadrupole moments (NQMom) in fm**2, nuclear magnetic moments (NMagM)
  in nuclear magnetons)

  Atom         1           2           3           4           5           6           7           8
 IAtWgt=          12           1           1           1          14           1           1           1
 AtmWgt=  12.0000000   1.0078250   1.0078250   1.0078250  14.0030740   1.0078250   1.0078250   1.0078250
 NucSpn=           0           1           1           1           2           1           1           1
 AtZEff=   0.0000000   0.0000000   0.0000000   0.0000000   0.0000000   0.0000000   0.0000000   0.0000000
 NQMom=    0.0000000   0.0000000   0.0000000   0.0000000   2.0440000   0.0000000   0.0000000   0.0000000
 NMagM=    0.0000000   2.7928460   2.7928460   2.7928460   0.4037610   2.7928460   2.7928460   2.7928460
 Leave Link  101 at Thu Feb 26 00:54:00 2015, MaxMem= 1073741824 cpu:       1.2
 (Enter /apps/gaussian/g09_c01/g09/l103.exe)

 GradGradGradGradGradGradGradGradGradGradGradGradGradGradGradGradGradGrad
 Berny optimization.
 Initialization pass.
                           ----------------------------
                           !    Initial Parameters    !
                           ! (Angstroms and Degrees)  !
 --------------------------                            --------------------------
 ! Name  Definition              Value          Derivative Info.                !
 --------------------------------------------------------------------------------
 ! R1    R(1,2)                  1.0898         calculate D2E/DX2 analytically  !
 ! R2    R(1,3)                  1.0898         calculate D2E/DX2 analytically  !
 ! R3    R(1,4)                  1.0898         calculate D2E/DX2 analytically  !
 ! R4    R(1,5)                  1.517          calculate D2E/DX2 analytically  !
 ! R5    R(5,6)                  1.0281         calculate D2E/DX2 analytically  !
 ! R6    R(5,7)                  1.0281         calculate D2E/DX2 analytically  !
 ! R7    R(5,8)                  1.0281         calculate D2E/DX2 analytically  !
 ! A1    A(2,1,3)              110.7303         calculate D2E/DX2 analytically  !
 ! A2    A(2,1,4)              110.7304         calculate D2E/DX2 analytically  !
 ! A3    A(2,1,5)              108.1807         calculate D2E/DX2 analytically  !
 ! A4    A(3,1,4)              110.7303         calculate D2E/DX2 analytically  !
 ! A5    A(3,1,5)              108.1807         calculate D2E/DX2 analytically  !
 ! A6    A(4,1,5)              108.1807         calculate D2E/DX2 analytically  !
 ! A7    A(1,5,6)              111.5829         calculate D2E/DX2 analytically  !
 ! A8    A(1,5,7)              111.583          calculate D2E/DX2 analytically  !
 ! A9    A(1,5,8)              111.583          calculate D2E/DX2 analytically  !
 ! A10   A(6,5,7)              107.2794         calculate D2E/DX2 analytically  !
 ! A11   A(6,5,8)              107.2794         calculate D2E/DX2 analytically  !
 ! A12   A(7,5,8)              107.2794         calculate D2E/DX2 analytically  !
 ! D1    D(2,1,5,6)            179.9926         calculate D2E/DX2 analytically  !
 ! D2    D(2,1,5,7)            -60.0075         calculate D2E/DX2 analytically  !
 ! D3    D(2,1,5,8)             59.9926         calculate D2E/DX2 analytically  !
 ! D4    D(3,1,5,6)            -60.0075         calculate D2E/DX2 analytically  !
 ! D5    D(3,1,5,7)             59.9925         calculate D2E/DX2 analytically  !
 ! D6    D(3,1,5,8)            179.9926         calculate D2E/DX2 analytically  !
 ! D7    D(4,1,5,6)             59.9925         calculate D2E/DX2 analytically  !
 ! D8    D(4,1,5,7)            179.9925         calculate D2E/DX2 analytically  !
 ! D9    D(4,1,5,8)            -60.0075         calculate D2E/DX2 analytically  !
 --------------------------------------------------------------------------------
 Trust Radius=3.00D-01 FncErr=1.00D-07 GrdErr=1.00D-06
 Number of steps in this run=     38 maximum allowed number of steps=    100.
 GradGradGradGradGradGradGradGradGradGradGradGradGradGradGradGradGradGrad

 Leave Link  103 at Thu Feb 26 00:54:00 2015, MaxMem= 1073741824 cpu:       0.0
 (Enter /apps/gaussian/g09_c01/g09/l202.exe)
                          Input orientation:                          
 ---------------------------------------------------------------------
 Center     Atomic      Atomic             Coordinates (Angstroms)
 Number     Number       Type             X           Y           Z
 ---------------------------------------------------------------------
      1          6           0        0.000000    0.000000   -0.804455
      2          1           0       -0.095874   -1.030964   -1.144495
      3          1           0       -0.844904    0.598511   -1.144495
      4          1           0        0.940777    0.432453   -1.144495
      5          7           0        0.000000    0.000000    0.712562
      6          1           0        0.088649    0.951929    1.090759
      7          1           0       -0.868719   -0.399192    1.090759
      8          1           0        0.780070   -0.552736    1.090759
 ---------------------------------------------------------------------
                    Distance matrix (angstroms):
                    1          2          3          4          5
     1  C    0.000000
     2  H    1.089819   0.000000
     3  H    1.089819   1.793386   0.000000
     4  H    1.089818   1.793386   1.793386   0.000000
     5  N    1.517017   2.126203   2.126203   2.126203   0.000000
     6  H    2.122702   2.993706   2.448017   2.447925   1.028134
     7  H    2.122702   2.448017   2.447925   2.993705   1.028134
     8  H    2.122702   2.447926   2.993705   2.448016   1.028134
                    6          7          8
     6  H    0.000000
     7  H    1.655923   0.000000
     8  H    1.655923   1.655923   0.000000
 Stoichiometry    CH6N(1+)
 Framework group  C3[C3(CN),X(H6)]
 Deg. of freedom     6
 Full point group                 C3      NOp   3
 Largest Abelian subgroup         C1      NOp   1
 Largest concise Abelian subgroup C1      NOp   1
                         Standard orientation:                         
 ---------------------------------------------------------------------
 Center     Atomic      Atomic             Coordinates (Angstroms)
 Number     Number       Type             X           Y           Z
 ---------------------------------------------------------------------
      1          6           0        0.000000    0.000000   -0.804455
      2          1           0        1.030964   -0.095874   -1.144495
      3          1           0       -0.598511   -0.844904   -1.144495
      4          1           0       -0.432453    0.940778   -1.144495
      5          7           0        0.000000    0.000000    0.712562
      6          1           0       -0.951929    0.088649    1.090759
      7          1           0        0.399192   -0.868719    1.090759
      8          1           0        0.552737    0.780070    1.090759
 ---------------------------------------------------------------------
 Rotational constants (GHZ):     84.1605103     19.8694623     19.8694623
 Leave Link  202 at Thu Feb 26 00:54:00 2015, MaxMem= 1073741824 cpu:       0.0
 (Enter /apps/gaussian/g09_c01/g09/l301.exe)
 Standard basis: 6-31G(d) (6D, 7F)
 Ernie: Thresh=  0.10000D-02 Tol=  0.10000D-05 Strict=F.
 There are    42 symmetry adapted basis functions of A   symmetry.
 Integral buffers will be    131072 words long.
 Raffenetti 2 integral format.
 Two-electron integral symmetry is turned on.
    42 basis functions,    80 primitive gaussians,    42 cartesian basis functions
     9 alpha electrons        9 beta electrons
       nuclear repulsion energy        47.5846100594 Hartrees.
 IExCor= 1009 DFT=T Ex=PBE Corr=PBE ExCW=0 ScaHFX=  0.000000
 ScaDFX=  1.000000  1.000000  1.000000  1.000000 ScalE2=  1.000000  1.000000
 IRadAn=      5 IRanWt=     -1 IRanGd=            0 ICorTp=0
 NAtoms=    8 NActive=    8 NUniq=    4 SFac= 4.00D+00 NAtFMM=   60 NAOKFM=F Big=F
 Leave Link  301 at Thu Feb 26 00:54:00 2015, MaxMem= 1073741824 cpu:       0.4
 (Enter /apps/gaussian/g09_c01/g09/l302.exe)
 NPDir=0 NMtPBC=     1 NCelOv=     1 NCel=       1 NClECP=     1 NCelD=      1
         NCelK=      1 NCelE2=     1 NClLst=     1 CellRange=     0.0.
 One-electron integrals computed using PRISM.
 NBasis=    42 RedAO= T  NBF=    42
 NBsUse=    42 1.00D-06 NBFU=    42
 Precomputing XC quadrature grid using
 IXCGrd= 2 IRadAn=           5 IRanWt=          -1 IRanGd=           0 AccXCQ= 0.00D+00.
 NRdTot=     652 NPtTot=      172830 NUsed=      177511 NTot=      177543
 NSgBfM=    42    42    42    42    42 NAtAll=     8     8.
 Leave Link  302 at Thu Feb 26 00:54:00 2015, MaxMem= 1073741824 cpu:       1.1
 (Enter /apps/gaussian/g09_c01/g09/l303.exe)
 DipDrv:  MaxL=1.
 Leave Link  303 at Thu Feb 26 00:54:00 2015, MaxMem= 1073741824 cpu:       0.1
 (Enter /apps/gaussian/g09_c01/g09/l401.exe)
 Harris functional with IExCor= 1009 diagonalized for initial guess.
 ExpMin= 1.61D-01 ExpMax= 4.17D+03 ExpMxC= 6.27D+02 IAcc=3 IRadAn=         5 AccDes= 0.00D+00
 HarFok:  IExCor= 1009 AccDes= 0.00D+00 IRadAn=         5 IDoV= 1
 ScaDFX=  1.000000  1.000000  1.000000  1.000000
 FoFCou: FMM=F IPFlag=           0 FMFlag=      100000 FMFlg1=           0
         NFxFlg=           0 DoJE=T BraDBF=F KetDBF=T FulRan=T
         Omega=  0.000000  0.000000  1.000000  0.000000  0.000000 ICntrl=     500 IOpCl=  0
         NMat0=    1 NMatS0=    1 NMatT0=    0 NMatD0=    1 NMtDS0=    0 NMtDT0=    0
         I1Cent=           4 NGrid=           0.
 Petite list used in FoFCou.
 Harris En= -96.1808329715130    
 Initial guess orbital symmetries:
       Occupied  (A) (A) (A) (A) (E) (E) (A) (E) (E)
       Virtual   (A) (A) (E) (E) (A) (E) (E) (A) (E) (E) (E) (E)
                 (A) (A) (E) (E) (E) (E) (A) (A) (E) (E) (A) (A)
                 (E) (E) (E) (E) (E) (E) (A) (A) (A)
 The electronic state of the initial guess is 1-A.
 Leave Link  401 at Thu Feb 26 00:54:00 2015, MaxMem= 1073741824 cpu:       1.6
 (Enter /apps/gaussian/g09_c01/g09/l502.exe)
 Closed shell SCF:
 Requested convergence on RMS density matrix=1.00D-08 within 128 cycles.
 Requested convergence on MAX density matrix=1.00D-06.
 Requested convergence on             energy=1.00D-06.
 No special actions if energy rises.
 Using DIIS extrapolation, IDIIS=  1040.
 Integral symmetry usage will be decided dynamically.
       177426 words used for storage of precomputed grid.
 Keep J ints in memory in canonical form, NReq=1471782.
 IEnd=      201570 IEndB=      201570 NGot=  1073741824 MDV=  1073150517
 LenX=  1073150517 LenY=  1073148312
 Symmetry not used in FoFDir.
 MinBra= 0 MaxBra= 2 Meth= 1.
 IRaf=       0 NMat=   1 IRICut=       1 DoRegI=T DoRafI=F ISym2E= 0 JSym2E=0.
 Integral accuracy reduced to 1.0D-05 until final iterations.

 Cycle   1  Pass 0  IDiag  1:
 E= -96.0493319520959    
 DIIS: error= 2.51D-02 at cycle   1 NSaved=   1.
 NSaved= 1 IEnMin= 1 EnMin= -96.0493319520959     IErMin= 1 ErrMin= 2.51D-02
 ErrMax= 2.51D-02 EMaxC= 1.00D-01 BMatC= 2.70D-02 BMatP= 2.70D-02
 IDIUse=3 WtCom= 7.49D-01 WtEn= 2.51D-01
 Coeff-Com:  0.100D+01
 Coeff-En:   0.100D+01
 Coeff:      0.100D+01
 Gap=     0.349 Goal=   None    Shift=    0.000
 GapD=    0.349 DampG=1.000 DampE=0.500 DampFc=0.5000 IDamp=-1.
 Damping current iteration by 5.00D-01
 RMSDP=7.63D-03 MaxDP=8.07D-02              OVMax= 1.20D-01

 Cycle   2  Pass 0  IDiag  1:
 E= -96.0616400153390     Delta-E=       -0.012308063243 Rises=F Damp=T
 DIIS: error= 5.46D-03 at cycle   2 NSaved=   2.
 NSaved= 2 IEnMin= 2 EnMin= -96.0616400153390     IErMin= 2 ErrMin= 5.46D-03
 ErrMax= 5.46D-03 EMaxC= 1.00D-01 BMatC= 1.66D-03 BMatP= 2.70D-02
 IDIUse=3 WtCom= 9.45D-01 WtEn= 5.46D-02
 Coeff-Com:  0.939D-01 0.906D+00
 Coeff-En:   0.152D+00 0.848D+00
 Coeff:      0.971D-01 0.903D+00
 Gap=     0.366 Goal=   None    Shift=    0.000
 RMSDP=1.54D-03 MaxDP=1.31D-02 DE=-1.23D-02 OVMax= 5.88D-02

 Cycle   3  Pass 0  IDiag  1:
 E= -96.0775820199874     Delta-E=       -0.015942004648 Rises=F Damp=F
 DIIS: error= 3.23D-03 at cycle   3 NSaved=   3.
 NSaved= 3 IEnMin= 3 EnMin= -96.0775820199874     IErMin= 3 ErrMin= 3.23D-03
 ErrMax= 3.23D-03 EMaxC= 1.00D-01 BMatC= 4.29D-04 BMatP= 1.66D-03
 IDIUse=3 WtCom= 9.68D-01 WtEn= 3.23D-02
 Coeff-Com: -0.833D-02 0.324D+00 0.685D+00
 Coeff-En:   0.000D+00 0.000D+00 0.100D+01
 Coeff:     -0.806D-02 0.313D+00 0.695D+00
 Gap=     0.370 Goal=   None    Shift=    0.000
 RMSDP=5.60D-04 MaxDP=5.21D-03 DE=-1.59D-02 OVMax= 7.74D-03

 Cycle   4  Pass 0  IDiag  1:
 E= -96.0780209328274     Delta-E=       -0.000438912840 Rises=F Damp=F
 DIIS: error= 5.62D-04 at cycle   4 NSaved=   4.
 NSaved= 4 IEnMin= 4 EnMin= -96.0780209328274     IErMin= 4 ErrMin= 5.62D-04
 ErrMax= 5.62D-04 EMaxC= 1.00D-01 BMatC= 1.18D-05 BMatP= 4.29D-04
 IDIUse=3 WtCom= 9.94D-01 WtEn= 5.62D-03
 Coeff-Com: -0.342D-02 0.470D-01 0.189D+00 0.767D+00
 Coeff-En:   0.000D+00 0.000D+00 0.000D+00 0.100D+01
 Coeff:     -0.340D-02 0.467D-01 0.188D+00 0.769D+00
 Gap=     0.369 Goal=   None    Shift=    0.000
 DSYEVD returned Info=          85 IAlg= 4 N=    42 NDim=    42 NE2=    25551149 trying DSYEV.
 RMSDP=9.38D-05 MaxDP=9.60D-04 DE=-4.39D-04 OVMax= 1.70D-03

 Cycle   5  Pass 0  IDiag  1:
 E= -96.0780276641436     Delta-E=       -0.000006731316 Rises=F Damp=F
 DIIS: error= 3.25D-04 at cycle   5 NSaved=   5.
 NSaved= 5 IEnMin= 5 EnMin= -96.0780276641436     IErMin= 5 ErrMin= 3.25D-04
 ErrMax= 3.25D-04 EMaxC= 1.00D-01 BMatC= 5.69D-06 BMatP= 1.18D-05
 IDIUse=3 WtCom= 9.97D-01 WtEn= 3.25D-03
 Coeff-Com: -0.211D-02 0.115D-01 0.855D-01 0.485D+00 0.420D+00
 Coeff-En:   0.000D+00 0.000D+00 0.000D+00 0.254D+00 0.746D+00
 Coeff:     -0.211D-02 0.115D-01 0.853D-01 0.484D+00 0.421D+00
 Gap=     0.369 Goal=   None    Shift=    0.000
 RMSDP=3.57D-05 MaxDP=5.77D-04 DE=-6.73D-06 OVMax= 6.26D-04

 Cycle   6  Pass 0  IDiag  1:
 E= -96.0780322077141     Delta-E=       -0.000004543570 Rises=F Damp=F
 DIIS: error= 2.67D-05 at cycle   6 NSaved=   6.
 NSaved= 6 IEnMin= 6 EnMin= -96.0780322077141     IErMin= 6 ErrMin= 2.67D-05
 ErrMax= 2.67D-05 EMaxC= 1.00D-01 BMatC= 2.28D-08 BMatP= 5.69D-06
 IDIUse=1 WtCom= 1.00D+00 WtEn= 0.00D+00
 Coeff-Com: -0.545D-03 0.218D-02 0.202D-01 0.121D+00 0.136D+00 0.721D+00
 Coeff:     -0.545D-03 0.218D-02 0.202D-01 0.121D+00 0.136D+00 0.721D+00
 Gap=     0.369 Goal=   None    Shift=    0.000
 RMSDP=4.11D-06 MaxDP=4.42D-05 DE=-4.54D-06 OVMax= 7.09D-05

 Initial convergence to 1.0D-05 achieved.  Increase integral accuracy.
 Cycle   7  Pass 1  IDiag  1:
 E= -96.0780338238557     Delta-E=       -0.000001616142 Rises=F Damp=F
 DIIS: error= 1.58D-06 at cycle   1 NSaved=   1.
 NSaved= 1 IEnMin= 1 EnMin= -96.0780338238557     IErMin= 1 ErrMin= 1.58D-06
 ErrMax= 1.58D-06 EMaxC= 1.00D-01 BMatC= 1.06D-10 BMatP= 1.06D-10
 IDIUse=1 WtCom= 1.00D+00 WtEn= 0.00D+00
 Coeff-Com:  0.100D+01
 Coeff:      0.100D+01
 Gap=     0.369 Goal=   None    Shift=    0.000
 RMSDP=4.11D-06 MaxDP=4.42D-05 DE=-1.62D-06 OVMax= 3.65D-06

 Cycle   8  Pass 1  IDiag  1:
 E= -96.0780338239378     Delta-E=       -0.000000000082 Rises=F Damp=F
 DIIS: error= 7.06D-07 at cycle   2 NSaved=   2.
 NSaved= 2 IEnMin= 2 EnMin= -96.0780338239378     IErMin= 2 ErrMin= 7.06D-07
 ErrMax= 7.06D-07 EMaxC= 1.00D-01 BMatC= 1.88D-11 BMatP= 1.06D-10
 IDIUse=1 WtCom= 1.00D+00 WtEn= 0.00D+00
 Coeff-Com:  0.288D+00 0.712D+00
 Coeff:      0.288D+00 0.712D+00
 Gap=     0.369 Goal=   None    Shift=    0.000
 RMSDP=9.50D-08 MaxDP=1.10D-06 DE=-8.21D-11 OVMax= 1.32D-06

 Cycle   9  Pass 1  IDiag  1:
 E= -96.0780338239542     Delta-E=       -0.000000000016 Rises=F Damp=F
 DIIS: error= 1.42D-07 at cycle   3 NSaved=   3.
 NSaved= 3 IEnMin= 3 EnMin= -96.0780338239542     IErMin= 3 ErrMin= 1.42D-07
 ErrMax= 1.42D-07 EMaxC= 1.00D-01 BMatC= 1.07D-12 BMatP= 1.88D-11
 IDIUse=1 WtCom= 1.00D+00 WtEn= 0.00D+00
 Coeff-Com:  0.105D+00 0.301D+00 0.594D+00
 Coeff:      0.105D+00 0.301D+00 0.594D+00
 Gap=     0.369 Goal=   None    Shift=    0.000
 RMSDP=2.55D-08 MaxDP=3.35D-07 DE=-1.64D-11 OVMax= 3.73D-07

 Cycle  10  Pass 1  IDiag  1:
 E= -96.0780338239549     Delta-E=       -0.000000000001 Rises=F Damp=F
 DIIS: error= 6.65D-08 at cycle   4 NSaved=   4.
 NSaved= 4 IEnMin= 4 EnMin= -96.0780338239549     IErMin= 4 ErrMin= 6.65D-08
 ErrMax= 6.65D-08 EMaxC= 1.00D-01 BMatC= 1.64D-13 BMatP= 1.07D-12
 IDIUse=1 WtCom= 1.00D+00 WtEn= 0.00D+00
 Coeff-Com:  0.903D-02 0.440D-01 0.303D+00 0.644D+00
 Coeff:      0.903D-02 0.440D-01 0.303D+00 0.644D+00
 Gap=     0.369 Goal=   None    Shift=    0.000
 DSYEVD returned Info=          85 IAlg= 4 N=    42 NDim=    42 NE2=    25551149 trying DSYEV.
 RMSDP=7.88D-09 MaxDP=1.01D-07 DE=-6.82D-13 OVMax= 1.14D-07

 SCF Done:  E(RPBE-PBE) =  -96.0780338240     A.U. after   10 cycles
             Convg  =    0.7876D-08             -V/T =  2.0101
 KE= 9.511831003109D+01 PE=-3.126195876946D+02 EE= 7.383863378012D+01
 Leave Link  502 at Thu Feb 26 00:54:01 2015, MaxMem= 1073741824 cpu:       4.0
 (Enter /apps/gaussian/g09_c01/g09/l801.exe)
 Range of M.O.s used for correlation:     1    42
 NBasis=    42 NAE=     9 NBE=     9 NFC=     0 NFV=     0
 NROrb=     42 NOA=     9 NOB=     9 NVA=    33 NVB=    33
 Leave Link  801 at Thu Feb 26 00:54:01 2015, MaxMem= 1073741824 cpu:       0.1
 (Enter /apps/gaussian/g09_c01/g09/l1002.exe)
 Minotr:  Closed shell wavefunction.
          Direct CPHF calculation.
          Differentiating once with respect to electric field.
                with respect to dipole field.
          Electric field/nuclear overlap derivatives assumed to be zero.
          Using symmetry in CPHF.
          Requested convergence is 1.0D-08 RMS, and 1.0D-07 maximum.
          Secondary convergence is 1.0D-12 RMS, and 1.0D-12 maximum.
          NewPWx=F KeepS1=T KeepF1=T KeepIn=T MapXYZ=F SortEE=F KeepMc=T.
          MDV=    1073741756 using IRadAn=       1.
 Generate precomputed XC quadrature information.
          Keep J ints in memory in canonical form, NReq=1231071.
 Symmetry not used in FoFDir.
 MinBra= 0 MaxBra= 2 Meth= 1.
 IRaf=       0 NMat=   1 IRICut=       1 DoRegI=T DoRafI=F ISym2E= 0 JSym2E=0.
          Solving linear equations simultaneously, MaxMat=       0.
          There are     3 degrees of freedom in the 1st order CPHF.  IDoFFX=0.
      3 vectors produced by pass  0 Test12= 9.90D-15 3.33D-08 XBig12= 1.10D+01 2.16D+00.
 AX will form     3 AO Fock derivatives at one time.
      3 vectors produced by pass  1 Test12= 9.90D-15 3.33D-08 XBig12= 7.38D-01 3.92D-01.
      3 vectors produced by pass  2 Test12= 9.90D-15 3.33D-08 XBig12= 2.36D-01 1.54D-01.
      3 vectors produced by pass  3 Test12= 9.90D-15 3.33D-08 XBig12= 1.53D-02 4.25D-02.
      3 vectors produced by pass  4 Test12= 9.90D-15 3.33D-08 XBig12= 3.62D-03 1.85D-02.
      3 vectors produced by pass  5 Test12= 9.90D-15 3.33D-08 XBig12= 1.49D-04 4.67D-03.
      3 vectors produced by pass  6 Test12= 9.90D-15 3.33D-08 XBig12= 3.81D-06 8.50D-04.
      3 vectors produced by pass  7 Test12= 9.90D-15 3.33D-08 XBig12= 2.49D-08 4.81D-05.
      1 vectors produced by pass  8 Test12= 9.90D-15 3.33D-08 XBig12= 8.22D-11 2.87D-06.
      1 vectors produced by pass  9 Test12= 9.90D-15 3.33D-08 XBig12= 3.61D-14 5.36D-08.
 Inverted reduced A of dimension    26 with in-core refinement.
 End of Minotr Frequency-dependent properties file   721 does not exist.
 End of Minotr Frequency-dependent properties file   722 does not exist.
 Leave Link 1002 at Thu Feb 26 00:54:01 2015, MaxMem= 1073741824 cpu:       6.2
 (Enter /apps/gaussian/g09_c01/g09/l1101.exe)
 Using compressed storage, NAtomX=     8.
 Will process   9 centers per pass.
 Leave Link 1101 at Thu Feb 26 00:54:02 2015, MaxMem= 1073741824 cpu:       1.0
 (Enter /apps/gaussian/g09_c01/g09/l1102.exe)
 Symmetrizing basis deriv contribution to polar:
 IMax=3 JMax=2 DiffMx= 0.00D+00
 Leave Link 1102 at Thu Feb 26 00:54:02 2015, MaxMem= 1073741824 cpu:       0.1
 (Enter /apps/gaussian/g09_c01/g09/l1110.exe)
 Forming Gx(P) for the SCF density, NAtomX=     8.
 Integral derivatives from FoFDir/FoFCou, PRISM(SPDF).
 Do as many integral derivatives as possible in FoFDir.
 G2DrvN: MDV=    1073741656.
 G2DrvN: will do     9 centers at a time, making    1 passes doing MaxLOS=2.
 Calling FoFCou, ICntrl=  3507 FMM=F I1Cent=   0 AccDes= 0.00D+00.
 FoFCou: FMM=F IPFlag=           0 FMFlag=      100000 FMFlg1=           0
         NFxFlg=           0 DoJE=F BraDBF=F KetDBF=F FulRan=T
         Omega=  0.000000  0.000000  1.000000  0.000000  0.000000 ICntrl=    3507 IOpCl=  0
         NMat0=    1 NMatS0=    1 NMatT0=    0 NMatD0=    4 NMtDS0=    3 NMtDT0=    0
         I1Cent=           0 NGrid=           0.
 Petite list used in FoFCou.
 FoFDir/FoFCou used for L=0 through L=2.
 End of G2Drv Frequency-dependent properties file   721 does not exist.
 End of G2Drv Frequency-dependent properties file   722 does not exist.
 Leave Link 1110 at Thu Feb 26 00:54:03 2015, MaxMem= 1073741824 cpu:      12.9
 (Enter /apps/gaussian/g09_c01/g09/l1002.exe)
 Minotr:  Closed shell wavefunction.
          IDoAtm=11111111
          Direct CPHF calculation.
          Differentiating once with respect to electric field.
                with respect to dipole field.
          Differentiating once with respect to nuclear coordinates.
          Using symmetry in CPHF.
          Requested convergence is 1.0D-08 RMS, and 1.0D-07 maximum.
          Secondary convergence is 1.0D-12 RMS, and 1.0D-12 maximum.
          NewPWx=T KeepS1=F KeepF1=F KeepIn=T MapXYZ=F SortEE=F KeepMc=T.
          MDV=    1073741740 using IRadAn=       1.
 Generate precomputed XC quadrature information.
          Keep J ints in memory in canonical form, NReq=1231239.
 Symmetry not used in FoFDir.
 MinBra= 0 MaxBra= 2 Meth= 1.
 IRaf=       0 NMat=   1 IRICut=       1 DoRegI=T DoRafI=F ISym2E= 0 JSym2E=0.
          Solving linear equations simultaneously, MaxMat=       0.
          There are    15 degrees of freedom in the 1st order CPHF.  IDoFFX=4.
 Will reuse    3 saved solutions.
     12 vectors produced by pass  0 Test12= 1.98D-15 6.67D-09 XBig12= 9.52D-02 1.55D-01.
 AX will form    12 AO Fock derivatives at one time.
     12 vectors produced by pass  1 Test12= 1.98D-15 6.67D-09 XBig12= 1.91D-02 4.01D-02.
     12 vectors produced by pass  2 Test12= 1.98D-15 6.67D-09 XBig12= 8.13D-05 3.20D-03.
     12 vectors produced by pass  3 Test12= 1.98D-15 6.67D-09 XBig12= 2.62D-08 5.42D-05.
     12 vectors produced by pass  4 Test12= 1.98D-15 6.67D-09 XBig12= 4.87D-12 5.91D-07.
 Inverted reduced A of dimension    60 with in-core refinement.
 FullF1:  Do perturbations    1 to    15.
 Isotropic polarizability for W=    0.000000       17.16 Bohr**3.
 FullF1:  Do perturbations    1 to     6.
 End of Minotr Frequency-dependent properties file   721 does not exist.
 End of Minotr Frequency-dependent properties file   722 does not exist.
 Leave Link 1002 at Thu Feb 26 00:54:04 2015, MaxMem= 1073741824 cpu:      10.0
 (Enter /apps/gaussian/g09_c01/g09/l601.exe)
 Copying SCF densities to generalized density rwf, IOpCl= 0 IROHF=0.

 **********************************************************************

            Population analysis using the SCF density.

 **********************************************************************

 Orbital symmetries:
       Occupied  (A) (A) (A) (A) (E) (E) (A) (E) (E)
       Virtual   (A) (E) (E) (A) (A) (E) (E) (A) (E) (E) (A) (E)
                 (E) (E) (E) (A) (E) (E) (A) (A) (E) (E) (A) (A)
                 (E) (E) (E) (E) (E) (E) (A) (A) (A)
 The electronic state is 1-A.
 Alpha  occ. eigenvalues --  -14.35554 -10.16083  -1.14419  -0.87049  -0.75461
 Alpha  occ. eigenvalues --   -0.75461  -0.66064  -0.57910  -0.57910
 Alpha virt. eigenvalues --   -0.20995  -0.14052  -0.14052  -0.12351  -0.08014
 Alpha virt. eigenvalues --   -0.06308  -0.06308   0.25620   0.27172   0.27172
 Alpha virt. eigenvalues --    0.41273   0.41830   0.41830   0.55219   0.55219
 Alpha virt. eigenvalues --    0.55690   0.63917   0.63917   0.67842   0.81219
 Alpha virt. eigenvalues --    1.12781   1.12781   1.25720   1.59228   1.66178
 Alpha virt. eigenvalues --    1.66178   1.94411   1.94411   1.98706   1.98706
 Alpha virt. eigenvalues --    2.24098   3.39978   3.91403
          Condensed to atoms (all electrons):
              1          2          3          4          5          6
     1  C    5.140208   0.379685   0.379685   0.379685   0.204487  -0.018746
     2  H    0.379685   0.416726  -0.018893  -0.018893  -0.027104   0.002766
     3  H    0.379685  -0.018893   0.416726  -0.018893  -0.027104  -0.002331
     4  H    0.379685  -0.018893  -0.018893   0.416726  -0.027104  -0.002333
     5  N    0.204487  -0.027104  -0.027104  -0.027104   6.675360   0.304551
     6  H   -0.018746   0.002766  -0.002331  -0.002333   0.304551   0.301056
     7  H   -0.018746  -0.002331  -0.002333   0.002766   0.304551  -0.013909
     8  H   -0.018746  -0.002333   0.002766  -0.002331   0.304551  -0.013909
              7          8
     1  C   -0.018746  -0.018746
     2  H   -0.002331  -0.002333
     3  H   -0.002333   0.002766
     4  H    0.002766  -0.002331
     5  N    0.304551   0.304551
     6  H   -0.013909  -0.013909
     7  H    0.301056  -0.013909
     8  H   -0.013909   0.301056
 Mulliken atomic charges:
              1
     1  C   -0.427511
     2  H    0.270378
     3  H    0.270378
     4  H    0.270378
     5  N   -0.712188
     6  H    0.442855
     7  H    0.442855
     8  H    0.442855
 Sum of Mulliken atomic charges =   1.00000
 Mulliken charges with hydrogens summed into heavy atoms:
              1
     1  C    0.383622
     5  N    0.616378
 Sum of Mulliken charges with hydrogens summed into heavy atoms =   1.00000
 APT atomic charges:
              1
     1  C    0.204639
     2  H    0.083929
     3  H    0.083929
     4  H    0.083929
     5  N   -0.250488
     6  H    0.264687
     7  H    0.264688
     8  H    0.264688
 Sum of APT charges=   1.00000
 APT Atomic charges with hydrogens summed into heavy atoms:
              1
     1  C    0.456424
     2  H    0.000000
     3  H    0.000000
     4  H    0.000000
     5  N    0.543575
     6  H    0.000000
     7  H    0.000000
     8  H    0.000000
 Sum of APT charges=   1.00000
 Electronic spatial extent (au):  <R**2>=             94.8024
 Charge=              1.0000 electrons
 Dipole moment (field-independent basis, Debye):
    X=              0.0000    Y=              0.0000    Z=              2.2990  Tot=              2.2990
 Quadrupole moment (field-independent basis, Debye-Ang):
   XX=            -10.1497   YY=            -10.1497   ZZ=             -6.8536
   XY=              0.0000   XZ=              0.0000   YZ=              0.0000
 Traceless Quadrupole moment (field-independent basis, Debye-Ang):
   XX=             -1.0987   YY=             -1.0987   ZZ=              2.1974
   XY=              0.0000   XZ=              0.0000   YZ=              0.0000
 Octapole moment (field-independent basis, Debye-Ang**2):
  XXX=             -0.3197  YYY=             -0.0918  ZZZ=              6.1096  XYY=              0.3197
  XXY=              0.0918  XXZ=              2.5828  XZZ=              0.0000  YZZ=              0.0000
  YYZ=              2.5828  XYZ=              0.0000
 Hexadecapole moment (field-independent basis, Debye-Ang**3):
 XXXX=            -17.5848 YYYY=            -17.5848 ZZZZ=            -62.4877 XXXY=              0.0000
 XXXZ=             -2.6692 YYYX=              0.0000 YYYZ=             -0.7629 ZZZX=              0.0000
 ZZZY=              0.0000 XXYY=             -5.8616 XXZZ=            -10.8138 YYZZ=            -10.8138
 XXYZ=              0.7629 YYXZ=              2.6692 ZZXY=              0.0000
 N-N= 4.758461005939D+01 E-N=-3.126195841521D+02  KE= 9.511831003109D+01
  Exact polarizability:  16.551   0.000  16.551   0.000   0.000  18.385
 Approx polarizability:  24.074   0.000  24.074   0.000   0.000  24.689
 No NMR shielding tensors so no spin-rotation constants.
 Leave Link  601 at Thu Feb 26 00:54:05 2015, MaxMem= 1073741824 cpu:       1.0
 (Enter /apps/gaussian/g09_c01/g09/l701.exe)
 Compute integral second derivatives.
 ... and contract with generalized density number  0.
 Leave Link  701 at Thu Feb 26 00:54:05 2015, MaxMem= 1073741824 cpu:       1.3
 (Enter /apps/gaussian/g09_c01/g09/l702.exe)
 L702 exits ... SP integral derivatives will be done elsewhere.
 Leave Link  702 at Thu Feb 26 00:54:05 2015, MaxMem= 1073741824 cpu:       0.1
 (Enter /apps/gaussian/g09_c01/g09/l703.exe)
 Compute integral second derivatives, UseDBF=F ICtDFT=           0.
 Integral derivatives from FoFDir, PRISM(SPDF).
 Calling FoFJK, ICntrl=    100527 FMM=F ISym2X=1 I1Cent= 0 IOpClX= 0 NMat=1 NMatS=1 NMatT=0.
 FoFCou: FMM=F IPFlag=           0 FMFlag=      100000 FMFlg1=         800
         NFxFlg=           0 DoJE=F BraDBF=F KetDBF=F FulRan=T
         Omega=  0.000000  0.000000  1.000000  0.000000  0.000000 ICntrl=  100527 IOpCl=  0
         NMat0=    1 NMatS0=    1 NMatT0=    0 NMatD0=    1 NMtDS0=    0 NMtDT0=    0
         I1Cent=           0 NGrid=           0.
 Petite list used in FoFCou.
 Leave Link  703 at Thu Feb 26 00:54:06 2015, MaxMem= 1073741824 cpu:      11.1
 (Enter /apps/gaussian/g09_c01/g09/l716.exe)
 Dipole        =-2.39391840D-16 8.46545056D-16 9.04501569D-01
 Polarizability= 1.65511024D+01 1.14935070D-05 1.65511168D+01
                 4.41410351D-06 1.94837168D-05 1.83854143D+01
 HyperPolar    = 5.34347917D+00-1.52201988D+00-5.34370072D+00
                 1.52150941D+00-2.67344313D+00-2.57247478D-04
                -2.67380481D+00-2.01066783D-04-1.29135403D-04
                 4.30224669D+00
 ***** Axes restored to original set *****
 -------------------------------------------------------------------
 Center     Atomic                   Forces (Hartrees/Bohr)
 Number     Number              X              Y              Z
 -------------------------------------------------------------------
      1        6           0.000000000    0.000000000    0.005648589
      2        1          -0.000470264   -0.005053747   -0.001876562
      3        1          -0.004141542    0.002934134   -0.001876562
      4        1           0.004611806    0.002119613   -0.001876562
      5        7           0.000000000    0.000000000   -0.006100835
      6        1           0.000498262    0.005354003    0.002027311
      7        1          -0.004885833   -0.002245494    0.002027311
      8        1           0.004387571   -0.003108508    0.002027311
 -------------------------------------------------------------------
 Cartesian Forces:  Max     0.006100835 RMS     0.003266283
 Force constants in Cartesian coordinates: 
                1             2             3             4             5 
      1  0.633649D+00
      2  0.000000D+00  0.633649D+00
      3  0.000000D+00  0.000000D+00  0.396439D+00
      4 -0.494141D-01 -0.251392D-01 -0.812438D-02  0.455728D-01
      5 -0.251398D-01 -0.317442D+00 -0.873268D-01  0.266095D-01  0.329269D+00
      6 -0.680174D-02 -0.731009D-01 -0.686853D-01  0.826590D-02  0.888446D-01
      7 -0.228664D+00  0.128630D+00 -0.715651D-01  0.426642D-02 -0.370108D-02
      8  0.128629D+00 -0.138193D+00  0.506993D-01  0.227807D-01 -0.121019D-01
      9 -0.599064D-01  0.424409D-01 -0.686853D-01  0.922710D-02 -0.434985D-02
     10 -0.272207D+00 -0.103489D+00  0.796894D-01  0.251893D-03  0.138329D-02
     11 -0.103490D+00 -0.946496D-01  0.366275D-01 -0.250985D-01 -0.808737D-02
     12  0.667080D-01  0.306599D-01 -0.686853D-01 -0.987073D-02 -0.257376D-02
     13 -0.929543D-01 -0.177833D-05  0.000000D+00 -0.141275D-02  0.729133D-03
     14  0.169558D-05 -0.929539D-01  0.000000D+00  0.728415D-03  0.635889D-02
     15  0.000000D+00  0.000000D+00 -0.152718D+00  0.393841D-03  0.424284D-02
     16 -0.162769D-03  0.631487D-03 -0.180439D-03  0.476413D-03  0.615392D-04
     17  0.630926D-03  0.655573D-02 -0.194441D-02  0.614335D-04  0.113151D-02
     18 -0.302217D-02 -0.324692D-01 -0.125551D-01  0.209823D-03  0.225922D-02
     19  0.542279D-02  0.259387D-02  0.177394D-02  0.218052D-03  0.220273D-03
     20  0.259334D-02  0.970205D-03  0.815845D-03  0.780562D-03  0.347161D-03
     21  0.296302D-01  0.136173D-01 -0.125550D-01  0.508872D-03 -0.600233D-03
     22  0.432946D-02 -0.322455D-02 -0.159362D-02  0.413581D-04 -0.162815D-03
     23 -0.322507D-02  0.206351D-02  0.112835D-02 -0.722874D-03  0.524735D-03
     24 -0.266081D-01  0.188518D-01 -0.125550D-01 -0.610455D-03 -0.496115D-03
                6             7             8             9            10 
      6  0.836581D-01
      7  0.270643D-02  0.235301D+00
      8  0.983518D-02 -0.136149D+00  0.139541D+00
      9  0.484554D-02  0.728087D-01 -0.515808D-01  0.836581D-01
     10 -0.846468D-03 -0.162715D-01 -0.109231D-01  0.716430D-02  0.281390D+00
     11  0.101658D-01  0.155587D-01  0.843605D-02 -0.726142D-02  0.109539D+00
     12  0.484554D-02 -0.838063D-02 -0.581598D-02  0.484554D-02 -0.810746D-01
     13 -0.329358D-02  0.378489D-02 -0.372926D-02 -0.290217D-01  0.504725D-02
     14 -0.354129D-01 -0.373001D-02  0.116134D-02  0.205588D-01  0.300049D-02
     15 -0.200253D-01  0.347752D-02 -0.246256D-02 -0.200252D-01 -0.387148D-02
     16  0.158487D-03 -0.118491D-03 -0.586259D-03 -0.838851D-03  0.203763D-04
     17  0.169846D-02 -0.259697D-04  0.683704D-03  0.579444D-03  0.150701D-03
     18 -0.674795D-02 -0.774253D-03 -0.140580D-03  0.105407D-02  0.734875D-03
     19 -0.823876D-04  0.787406D-03  0.292144D-03 -0.824959D-03  0.102098D-02
     20 -0.101619D-02 -0.267916D-03 -0.221312D-03  0.599400D-03  0.252867D-03
     21  0.105407D-02 -0.124421D-03  0.776727D-03  0.105527D-02 -0.206146D-02
     22 -0.106616D-03  0.914483D-03 -0.314354D-03  0.139166D-02  0.748258D-03
     23 -0.101414D-02 -0.314459D-03  0.693435D-03 -0.986482D-03  0.858414D-04
     24  0.105527D-02  0.185163D-02 -0.131132D-02 -0.674795D-02  0.265381D-03
               11            12            13            14            15 
     11  0.934524D-01
     12 -0.372638D-01  0.836581D-01
     13  0.300125D-02  0.323153D-01  0.721677D+00
     14 -0.100975D-03  0.148541D-01  0.000000D+00  0.721677D+00
     15 -0.178041D-02 -0.200252D-01  0.000000D+00  0.000000D+00  0.503889D+00
     16  0.710760D-03  0.931575D-03 -0.642852D-01 -0.277505D-01 -0.103119D-01
     17  0.545717D-03  0.414736D-03 -0.277501D-01 -0.359810D+00 -0.110756D+00
     18 -0.280612D-03  0.105527D-02 -0.111070D-01 -0.119299D+00 -0.970316D-01
     19  0.252973D-03 -0.155015D-02 -0.309961D+00 -0.114091D+00  0.101073D+00
     20  0.586937D-03 -0.711974D-03 -0.114090D+00 -0.114134D+00  0.464475D-01
     21 -0.947900D-03 -0.674795D-02  0.108870D+00  0.500307D-01 -0.970317D-01
     22 -0.474448D-03  0.921238D-03 -0.261896D+00  0.141841D+00 -0.907613D-01
     23 -0.183045D-03  0.436744D-03  0.141841D+00 -0.162199D+00  0.643082D-01
     24  0.740813D-03  0.105407D-02 -0.977628D-01  0.692686D-01 -0.970317D-01
               16            17            18            19            20 
     16  0.583683D-01
     17  0.300063D-01  0.377908D+00
     18  0.112690D-01  0.121050D+00  0.102273D+00
     19  0.189226D-03  0.919726D-03 -0.616470D-03  0.324009D+00
     20 -0.323263D-01 -0.108459D-01  0.146231D-01  0.123362D+00  0.112267D+00
     21 -0.140001D-01 -0.426533D-02  0.597611D-02 -0.110467D+00 -0.507659D-01
     22  0.551228D-02 -0.399299D-02  0.330617D-02 -0.216866D-01  0.196963D-01
     23  0.292530D-01 -0.161690D-01  0.142571D-01 -0.135497D-01  0.110299D-01
     24  0.129722D-01 -0.677765D-02  0.597611D-02  0.106939D-01 -0.999178D-02
               21            22            23            24 
     21  0.102273D+00
     22 -0.123557D-01  0.272037D+00
     23 -0.784540D-02 -0.153368D+00  0.164239D+00
     24  0.597611D-02  0.991981D-01 -0.702844D-01  0.102273D+00
 Force constants in internal coordinates: 
                1             2             3             4             5 
      1  0.360492D+00
      2  0.117397D-02  0.360492D+00
      3  0.117399D-02  0.117395D-02  0.360492D+00
      4  0.253750D-02  0.253746D-02  0.253741D-02  0.264375D+00
      5 -0.151810D-02  0.273248D-03  0.272964D-03  0.562583D-02  0.426197D+00
      6  0.273242D-03  0.272975D-03 -0.151805D-02  0.562560D-02  0.126264D-02
      7  0.272971D-03 -0.151810D-02  0.273251D-03  0.562565D-02  0.126262D-02
      8  0.393337D-02  0.393267D-02 -0.136068D-02 -0.258407D-01 -0.159232D-03
      9  0.393266D-02 -0.136069D-02  0.393340D-02 -0.258407D-01 -0.158518D-03
     10  0.663447D-04 -0.345398D-02 -0.345381D-02  0.271756D-01  0.281615D-02
     11 -0.136070D-02  0.393338D-02  0.393270D-02 -0.258407D-01  0.864590D-03
     12 -0.345375D-02  0.662963D-04 -0.345399D-02  0.271756D-01 -0.169581D-02
     13 -0.345398D-02 -0.345374D-02  0.663180D-04  0.271757D-01 -0.169543D-02
     14  0.712454D-03 -0.186531D-04 -0.197039D-04  0.146642D-01 -0.541291D-02
     15 -0.186770D-04 -0.197128D-04  0.712426D-03  0.146644D-01 -0.355069D-02
     16 -0.197340D-04  0.712428D-03 -0.186080D-04  0.146644D-01 -0.355002D-02
     17 -0.326041D-03 -0.727202D-04 -0.325649D-03 -0.157594D-01  0.674397D-02
     18 -0.325627D-03 -0.326046D-03 -0.727280D-04 -0.157594D-01  0.675019D-02
     19 -0.727076D-04 -0.325630D-03 -0.326075D-03 -0.157593D-01 -0.461293D-04
     20  0.000000D+00 -0.271908D-02  0.271915D-02  0.000000D+00  0.438715D-05
     21  0.590453D-04 -0.283809D-02  0.277854D-02  0.000000D+00  0.246220D-02
     22 -0.599842D-04 -0.277868D-02  0.283814D-02  0.000000D+00 -0.246181D-02
     23  0.277855D-02  0.590396D-04 -0.283811D-02  0.000000D+00  0.451156D-03
     24  0.283816D-02 -0.599750D-04 -0.277872D-02  0.000000D+00  0.290897D-02
     25  0.271913D-02  0.000000D+00 -0.271912D-02  0.000000D+00 -0.201505D-02
     26 -0.277869D-02  0.283814D-02 -0.599521D-04  0.000000D+00 -0.443452D-03
     27 -0.271908D-02  0.271913D-02  0.000000D+00  0.000000D+00  0.201436D-02
     28 -0.283811D-02  0.277854D-02  0.590355D-04  0.000000D+00 -0.290965D-02
                6             7             8             9            10 
      6  0.426197D+00
      7  0.126261D-02  0.426197D+00
      8  0.864582D-03 -0.158519D-03  0.517525D-01
      9 -0.159242D-03  0.864582D-03  0.117282D-01  0.517525D-01
     10 -0.169581D-02 -0.169541D-02 -0.448869D-01 -0.448828D-01  0.130092D+00
     11 -0.158543D-03 -0.159227D-03  0.117282D-01  0.117282D-01  0.106756D-01
     12 -0.169539D-02  0.281614D-02 -0.448828D-01  0.106756D-01 -0.234560D-01
     13  0.281615D-02 -0.169582D-02  0.106756D-01 -0.448869D-01 -0.234560D-01
     14 -0.355006D-02 -0.355067D-02 -0.413588D-02 -0.413577D-02  0.168724D-01
     15 -0.541290D-02 -0.355001D-02  0.331878D-02 -0.413587D-02 -0.583103D-02
     16 -0.355069D-02 -0.541293D-02 -0.413577D-02  0.331876D-02 -0.583258D-02
     17  0.675020D-02 -0.461292D-04  0.798789D-03  0.372537D-02 -0.487457D-02
     18 -0.461246D-04  0.674397D-02  0.372537D-02  0.798563D-03 -0.487362D-02
     19  0.674399D-02  0.675018D-02  0.798563D-03  0.798794D-03  0.415049D-02
     20 -0.201506D-02  0.201436D-02 -0.588679D-02  0.588484D-02  0.225525D-05
     21  0.451139D-03 -0.290964D-02 -0.542809D-02  0.496766D-02  0.135176D-02
     22  0.290898D-02 -0.443460D-03 -0.496961D-02  0.542636D-02 -0.134741D-02
     23 -0.290965D-02  0.246220D-02  0.496766D-02  0.458779D-03  0.695586D-02
     24 -0.443450D-03 -0.246180D-02  0.542636D-02 -0.458400D-03  0.830537D-02
     25  0.201439D-02  0.438243D-05  0.588485D-02  0.000000D+00  0.560620D-02
     26 -0.246181D-02  0.290896D-02 -0.458410D-03 -0.496961D-02 -0.695622D-02
     27  0.438245D-05 -0.201504D-02  0.000000D+00 -0.588679D-02 -0.560671D-02
     28  0.246223D-02  0.451145D-03  0.458774D-03 -0.542809D-02 -0.830588D-02
               11            12            13            14            15 
     11  0.517525D-01
     12 -0.448869D-01  0.130092D+00
     13 -0.448829D-01 -0.234560D-01  0.130092D+00
     14  0.331876D-02 -0.583101D-02 -0.583260D-02  0.999878D-01
     15 -0.413576D-02 -0.583263D-02  0.168724D-01 -0.179086D-01  0.999878D-01
     16 -0.413589D-02  0.168724D-01 -0.583106D-02 -0.179086D-01 -0.179086D-01
     17  0.798567D-03  0.415050D-02 -0.487362D-02 -0.410425D-01 -0.410428D-01
     18  0.798792D-03 -0.487458D-02  0.415051D-02 -0.410427D-01  0.131229D-01
     19  0.372537D-02 -0.487362D-02 -0.487457D-02  0.131229D-01 -0.410425D-01
     20  0.000000D+00 -0.560670D-02  0.560620D-02  0.000000D+00 -0.257176D-02
     21  0.458771D-03 -0.830589D-02  0.695587D-02  0.390351D-02  0.133189D-02
     22 -0.458405D-03 -0.695624D-02  0.830538D-02 -0.390409D-02  0.523585D-02
     23 -0.542809D-02  0.135177D-02 -0.830589D-02  0.133188D-02 -0.523568D-02
     24 -0.496960D-02 -0.134742D-02 -0.695622D-02  0.523584D-02 -0.133204D-02
     25 -0.588678D-02  0.223404D-05 -0.560672D-02 -0.257175D-02  0.257193D-02
     26  0.542635D-02  0.830539D-02 -0.134741D-02 -0.133203D-02 -0.390410D-02
     27  0.588484D-02  0.560620D-02  0.225847D-05  0.257193D-02  0.000000D+00
     28  0.496767D-02  0.695585D-02  0.135177D-02 -0.523566D-02  0.390350D-02
               16            17            18            19            20 
     16  0.999878D-01
     17  0.131229D-01  0.548958D-01
     18 -0.410425D-01  0.960805D-02  0.548958D-01
     19 -0.410427D-01  0.960805D-02  0.960805D-02  0.548958D-01
     20  0.257192D-02 -0.742210D-02  0.742245D-02  0.000000D+00  0.145225D-01
     21 -0.523568D-02  0.633455D-02  0.544044D-03 -0.687828D-02  0.329598D-02
     22 -0.133204D-02 -0.543872D-03 -0.633419D-02  0.687836D-02  0.329604D-02
     23  0.390352D-02 -0.687828D-02  0.633454D-02  0.544041D-03  0.429150D-02
     24 -0.390408D-02  0.687836D-02 -0.543866D-03 -0.633420D-02 -0.693501D-02
     25  0.000000D+00  0.000000D+00 -0.742211D-02  0.742244D-02 -0.693495D-02
     26  0.523584D-02 -0.633419D-02  0.687836D-02 -0.543859D-03  0.429155D-02
     27 -0.257175D-02  0.742245D-02  0.000000D+00 -0.742210D-02 -0.693496D-02
     28  0.133189D-02  0.544032D-03 -0.687829D-02  0.633454D-02 -0.693490D-02
               21            22            23            24            25 
     21  0.149605D-01
     22  0.351502D-02  0.149606D-01
     23 -0.715395D-02 -0.737298D-02  0.149605D-01
     24  0.451054D-02 -0.715400D-02  0.351502D-02  0.149606D-01
     25 -0.693491D-02  0.429155D-02  0.329598D-02  0.329603D-02  0.145225D-01
     26 -0.737299D-02 -0.715400D-02  0.451054D-02 -0.715400D-02 -0.693502D-02
     27  0.429150D-02 -0.693502D-02 -0.693491D-02  0.429155D-02 -0.693497D-02
     28 -0.715395D-02  0.451053D-02 -0.715395D-02 -0.737299D-02  0.429149D-02
               26            27            28 
     26  0.149606D-01
     27  0.329604D-02  0.145225D-01
     28  0.351502D-02  0.329597D-02  0.149605D-01
 Leave Link  716 at Thu Feb 26 00:54:06 2015, MaxMem= 1073741824 cpu:       0.1
 (Enter /apps/gaussian/g09_c01/g09/l103.exe)

 GradGradGradGradGradGradGradGradGradGradGradGradGradGradGradGradGradGrad
 Berny optimization.
 Red2BG is reusing G-inverse.
 Internal  Forces:  Max     0.005745867 RMS     0.002584885
 Search for a local minimum.
 Step number   1 out of a maximum of   38
 All quantities printed in internal units (Hartrees-Bohrs-Radians)
 RMS Force = .25849D-02 SwitMx=.10000D-02 MixMth= 1
 Mixed Optimization -- RFO/linear search
 Second derivative matrix not updated -- analytic derivatives used.
 ITU=  0
     Eigenvalues ---    0.00196   0.04705   0.04705   0.05034   0.05034
     Eigenvalues ---    0.12101   0.13207   0.13207   0.13417   0.19223
     Eigenvalues ---    0.19223   0.30389   0.35964   0.35964   0.36330
     Eigenvalues ---    0.42536   0.42536   0.43024
 RFO step:  Lambda=-4.79545616D-04 EMin= 1.95770555D-03
 Linear search not attempted -- first point.
 Iteration  1 RMS(Cart)=  0.00646671 RMS(Int)=  0.00000754
 Iteration  2 RMS(Cart)=  0.00000996 RMS(Int)=  0.00000170
 Iteration  3 RMS(Cart)=  0.00000000 RMS(Int)=  0.00000170
 ClnCor:  largest displacement from symmetrization is 1.71D-08 for atom     7.
 Variable       Old X    -DE/DX   Delta X   Delta X   Delta X     New X
                                 (Linear)    (Quad)   (Total)
    R1        2.05946   0.00541   0.00000   0.01503   0.01503   2.07449
    R2        2.05946   0.00541   0.00000   0.01503   0.01503   2.07449
    R3        2.05946   0.00541   0.00000   0.01503   0.01503   2.07449
    R4        2.86675  -0.00002   0.00000  -0.00310  -0.00310   2.86365
    R5        1.94289   0.00575   0.00000   0.01351   0.01351   1.95640
    R6        1.94289   0.00575   0.00000   0.01351   0.01351   1.95640
    R7        1.94289   0.00575   0.00000   0.01351   0.01351   1.95640
    A1        1.93261  -0.00020   0.00000  -0.00241  -0.00241   1.93020
    A2        1.93261  -0.00020   0.00000  -0.00241  -0.00241   1.93020
    A3        1.88811   0.00022   0.00000   0.00253   0.00253   1.89064
    A4        1.93261  -0.00020   0.00000  -0.00241  -0.00241   1.93020
    A5        1.88811   0.00022   0.00000   0.00253   0.00253   1.89064
    A6        1.88811   0.00022   0.00000   0.00253   0.00253   1.89064
    A7        1.94749  -0.00008   0.00000   0.00069   0.00069   1.94818
    A8        1.94749  -0.00008   0.00000   0.00069   0.00069   1.94818
    A9        1.94749  -0.00008   0.00000   0.00069   0.00069   1.94818
   A10        1.87238   0.00009   0.00000  -0.00074  -0.00074   1.87164
   A11        1.87238   0.00009   0.00000  -0.00074  -0.00074   1.87164
   A12        1.87238   0.00009   0.00000  -0.00074  -0.00074   1.87164
    D1        3.14146   0.00000   0.00000   0.00006   0.00006   3.14152
    D2       -1.04733   0.00000   0.00000   0.00006   0.00006  -1.04727
    D3        1.04707   0.00000   0.00000   0.00006   0.00006   1.04713
    D4       -1.04733   0.00000   0.00000   0.00006   0.00006  -1.04727
    D5        1.04707   0.00000   0.00000   0.00006   0.00006   1.04713
    D6        3.14146   0.00000   0.00000   0.00006   0.00006   3.14152
    D7        1.04707   0.00000   0.00000   0.00006   0.00006   1.04713
    D8        3.14146   0.00000   0.00000   0.00006   0.00006   3.14152
    D9       -1.04733   0.00000   0.00000   0.00006   0.00006  -1.04727
         Item               Value     Threshold  Converged?
 Maximum Force            0.005746     0.000002     NO 
 RMS     Force            0.002585     0.000001     NO 
 Maximum Displacement     0.012577     0.000006     NO 
 RMS     Displacement     0.006467     0.000004     NO 
 Predicted change in Energy=-2.400788D-04
 GradGradGradGradGradGradGradGradGradGradGradGradGradGradGradGradGradGrad

 Leave Link  103 at Thu Feb 26 00:54:06 2015, MaxMem= 1073741824 cpu:       0.0
 (Enter /apps/gaussian/g09_c01/g09/l202.exe)
                          Input orientation:                          
 ---------------------------------------------------------------------
 Center     Atomic      Atomic             Coordinates (Angstroms)
 Number     Number       Type             X           Y           Z
 ---------------------------------------------------------------------
      1          6           0        0.000000    0.000000   -0.802951
      2          1           0       -0.096522   -1.037619   -1.148110
      3          1           0       -0.850344    0.602400   -1.148110
      4          1           0        0.946866    0.435219   -1.148110
      5          7           0        0.000000    0.000000    0.712428
      6          1           0        0.089210    0.958291    1.093917
      7          1           0       -0.874509   -0.401887    1.093917
      8          1           0        0.785299   -0.556403    1.093917
 ---------------------------------------------------------------------
                    Distance matrix (angstroms):
                    1          2          3          4          5
     1  C    0.000000
     2  H    1.097773   0.000000
     3  H    1.097773   1.804968   0.000000
     4  H    1.097773   1.804968   1.804968   0.000000
     5  N    1.515379   2.132503   2.132503   2.132503   0.000000
     6  H    2.127061   3.007464   2.456849   2.456800   1.035284
     7  H    2.127061   2.456849   2.456800   3.007464   1.035284
     8  H    2.127061   2.456800   3.007464   2.456849   1.035284
                    6          7          8
     6  H    0.000000
     7  H    1.666985   0.000000
     8  H    1.666985   1.666985   0.000000
 Stoichiometry    CH6N(1+)
 Framework group  C3[C3(CN),X(H6)]
 Deg. of freedom     6
 Full point group                 C3      NOp   3
 RotChk:  IX=0 Diff= 0.00D+00
 Largest Abelian subgroup         C1      NOp   1
 Largest concise Abelian subgroup C1      NOp   1
                         Standard orientation:                         
 ---------------------------------------------------------------------
 Center     Atomic      Atomic             Coordinates (Angstroms)
 Number     Number       Type             X           Y           Z
 ---------------------------------------------------------------------
      1          6           0        0.000000    0.000000   -0.803304
      2          1           0        1.037619   -0.096522   -1.148463
      3          1           0       -0.602400   -0.850344   -1.148463
      4          1           0       -0.435219    0.946866   -1.148463
      5          7           0        0.000000    0.000000    0.712075
      6          1           0       -0.958291    0.089210    1.093564
      7          1           0        0.401887   -0.874509    1.093564
      8          1           0        0.556404    0.785299    1.093564
 ---------------------------------------------------------------------
 Rotational constants (GHZ):     83.0670732     19.8276794     19.8276794
 Leave Link  202 at Thu Feb 26 00:54:06 2015, MaxMem= 1073741824 cpu:       0.0
 (Enter /apps/gaussian/g09_c01/g09/l301.exe)
 Standard basis: 6-31G(d) (6D, 7F)
 Ernie: Thresh=  0.10000D-02 Tol=  0.10000D-05 Strict=F.
 There are    42 symmetry adapted basis functions of A   symmetry.
 Integral buffers will be    131072 words long.
 Raffenetti 2 integral format.
 Two-electron integral symmetry is turned on.
    42 basis functions,    80 primitive gaussians,    42 cartesian basis functions
     9 alpha electrons        9 beta electrons
       nuclear repulsion energy        47.4186960460 Hartrees.
 IExCor= 1009 DFT=T Ex=PBE Corr=PBE ExCW=0 ScaHFX=  0.000000
 ScaDFX=  1.000000  1.000000  1.000000  1.000000 ScalE2=  1.000000  1.000000
 IRadAn=      5 IRanWt=     -1 IRanGd=            0 ICorTp=0
 NAtoms=    8 NActive=    8 NUniq=    4 SFac= 4.00D+00 NAtFMM=   60 NAOKFM=F Big=F
 Leave Link  301 at Thu Feb 26 00:54:06 2015, MaxMem= 1073741824 cpu:       0.3
 (Enter /apps/gaussian/g09_c01/g09/l302.exe)
 NPDir=0 NMtPBC=     1 NCelOv=     1 NCel=       1 NClECP=     1 NCelD=      1
         NCelK=      1 NCelE2=     1 NClLst=     1 CellRange=     0.0.
 One-electron integrals computed using PRISM.
 NBasis=    42 RedAO= T  NBF=    42
 NBsUse=    42 1.00D-06 NBFU=    42
 Precomputing XC quadrature grid using
 IXCGrd= 2 IRadAn=           5 IRanWt=          -1 IRanGd=           0 AccXCQ= 0.00D+00.
 NRdTot=     652 NPtTot=      172830 NUsed=      177511 NTot=      177543
 NSgBfM=    42    42    42    42    42 NAtAll=     8     8.
 Leave Link  302 at Thu Feb 26 00:54:06 2015, MaxMem= 1073741824 cpu:       1.1
 (Enter /apps/gaussian/g09_c01/g09/l303.exe)
 DipDrv:  MaxL=1.
 Leave Link  303 at Thu Feb 26 00:54:06 2015, MaxMem= 1073741824 cpu:       0.1
 (Enter /apps/gaussian/g09_c01/g09/l401.exe)
 Initial guess read from the read-write file.
 B after Tr=     0.000000    0.000000    0.000000
         Rot=    1.000000    0.000000    0.000000    0.000000 Ang=   0.00 deg.
 Guess basis will be translated and rotated to current coordinates.
 Initial guess orbital symmetries:
       Occupied  (A) (A) (A) (A) (E) (E) (A) (E) (E)
       Virtual   (A) (E) (E) (A) (A) (E) (E) (A) (E) (E) (A) (E)
                 (E) (E) (E) (A) (E) (E) (A) (A) (E) (E) (A) (A)
                 (E) (E) (E) (E) (E) (E) (A) (A) (A)
 The electronic state of the initial guess is 1-A.
 Leave Link  401 at Thu Feb 26 00:54:07 2015, MaxMem= 1073741824 cpu:       0.5
 (Enter /apps/gaussian/g09_c01/g09/l502.exe)
 Closed shell SCF:
 Requested convergence on RMS density matrix=1.00D-08 within 128 cycles.
 Requested convergence on MAX density matrix=1.00D-06.
 Requested convergence on             energy=1.00D-06.
 No special actions if energy rises.
 Using DIIS extrapolation, IDIIS=  1040.
 Integral symmetry usage will be decided dynamically.
       177426 words used for storage of precomputed grid.
 Keep J ints in memory in canonical form, NReq=1471782.
 IEnd=      201570 IEndB=      201570 NGot=  1073741824 MDV=  1073150517
 LenX=  1073150517 LenY=  1073148312
 Symmetry not used in FoFDir.
 MinBra= 0 MaxBra= 2 Meth= 1.
 IRaf=       0 NMat=   1 IRICut=       1 DoRegI=T DoRafI=F ISym2E= 0 JSym2E=0.

 Cycle   1  Pass 1  IDiag  1:
 E= -96.0782114167550    
 DIIS: error= 1.19D-03 at cycle   1 NSaved=   1.
 NSaved= 1 IEnMin= 1 EnMin= -96.0782114167550     IErMin= 1 ErrMin= 1.19D-03
 ErrMax= 1.19D-03 EMaxC= 1.00D-01 BMatC= 5.28D-05 BMatP= 5.28D-05
 IDIUse=3 WtCom= 9.88D-01 WtEn= 1.19D-02
 Coeff-Com:  0.100D+01
 Coeff-En:   0.100D+01
 Coeff:      0.100D+01
 Gap=     0.364 Goal=   None    Shift=    0.000
 GapD=    0.364 DampG=1.000 DampE=1.000 DampFc=1.0000 IDamp=-1.
 RMSDP=3.01D-04 MaxDP=3.15D-03              OVMax= 3.95D-03

 Cycle   2  Pass 1  IDiag  1:
 E= -96.0782155236576     Delta-E=       -0.000004106903 Rises=F Damp=F
 DIIS: error= 1.31D-03 at cycle   2 NSaved=   2.
 NSaved= 2 IEnMin= 2 EnMin= -96.0782155236576     IErMin= 1 ErrMin= 1.19D-03
 ErrMax= 1.31D-03 EMaxC= 1.00D-01 BMatC= 6.81D-05 BMatP= 5.28D-05
 IDIUse=3 WtCom= 2.17D-01 WtEn= 7.83D-01
 Coeff-Com:  0.537D+00 0.463D+00
 Coeff-En:   0.481D+00 0.519D+00
 Coeff:      0.493D+00 0.507D+00
 Gap=     0.365 Goal=   None    Shift=    0.000
 RMSDP=1.81D-04 MaxDP=2.18D-03 DE=-4.11D-06 OVMax= 2.34D-03

 Cycle   3  Pass 1  IDiag  1:
 E= -96.0782717158292     Delta-E=       -0.000056192172 Rises=F Damp=F
 DIIS: error= 3.55D-04 at cycle   3 NSaved=   3.
 NSaved= 3 IEnMin= 3 EnMin= -96.0782717158292     IErMin= 3 ErrMin= 3.55D-04
 ErrMax= 3.55D-04 EMaxC= 1.00D-01 BMatC= 6.89D-06 BMatP= 5.28D-05
 IDIUse=3 WtCom= 9.96D-01 WtEn= 3.55D-03
 Coeff-Com:  0.840D-01 0.252D+00 0.664D+00
 Coeff-En:   0.000D+00 0.460D-01 0.954D+00
 Coeff:      0.837D-01 0.252D+00 0.665D+00
 Gap=     0.365 Goal=   None    Shift=    0.000
 RMSDP=4.28D-05 MaxDP=6.31D-04 DE=-5.62D-05 OVMax= 6.93D-04

 Cycle   4  Pass 1  IDiag  1:
 E= -96.0782770786971     Delta-E=       -0.000005362868 Rises=F Damp=F
 DIIS: error= 9.35D-05 at cycle   4 NSaved=   4.
 NSaved= 4 IEnMin= 4 EnMin= -96.0782770786971     IErMin= 4 ErrMin= 9.35D-05
 ErrMax= 9.35D-05 EMaxC= 1.00D-01 BMatC= 4.38D-07 BMatP= 6.89D-06
 IDIUse=1 WtCom= 1.00D+00 WtEn= 0.00D+00
 Coeff-Com:  0.261D-01 0.117D+00 0.359D+00 0.499D+00
 Coeff:      0.261D-01 0.117D+00 0.359D+00 0.499D+00
 Gap=     0.365 Goal=   None    Shift=    0.000
 RMSDP=1.33D-05 MaxDP=1.61D-04 DE=-5.36D-06 OVMax= 2.54D-04

 Cycle   5  Pass 1  IDiag  1:
 E= -96.0782774505206     Delta-E=       -0.000000371823 Rises=F Damp=F
 DIIS: error= 2.50D-05 at cycle   5 NSaved=   5.
 NSaved= 5 IEnMin= 5 EnMin= -96.0782774505206     IErMin= 5 ErrMin= 2.50D-05
 ErrMax= 2.50D-05 EMaxC= 1.00D-01 BMatC= 2.46D-08 BMatP= 4.38D-07
 IDIUse=1 WtCom= 1.00D+00 WtEn= 0.00D+00
 Coeff-Com:  0.469D-02 0.326D-01 0.111D+00 0.244D+00 0.608D+00
 Coeff:      0.469D-02 0.326D-01 0.111D+00 0.244D+00 0.608D+00
 Gap=     0.365 Goal=   None    Shift=    0.000
 RMSDP=2.68D-06 MaxDP=3.04D-05 DE=-3.72D-07 OVMax= 4.26D-05

 Cycle   6  Pass 1  IDiag  1:
 E= -96.0782774724916     Delta-E=       -0.000000021971 Rises=F Damp=F
 DIIS: error= 1.59D-06 at cycle   6 NSaved=   6.
 NSaved= 6 IEnMin= 6 EnMin= -96.0782774724916     IErMin= 6 ErrMin= 1.59D-06
 ErrMax= 1.59D-06 EMaxC= 1.00D-01 BMatC= 9.01D-11 BMatP= 2.46D-08
 IDIUse=1 WtCom= 1.00D+00 WtEn= 0.00D+00
 Coeff-Com: -0.570D-04 0.196D-02 0.703D-02 0.268D-01 0.108D+00 0.857D+00
 Coeff:     -0.570D-04 0.196D-02 0.703D-02 0.268D-01 0.108D+00 0.857D+00
 Gap=     0.365 Goal=   None    Shift=    0.000
 RMSDP=2.23D-07 MaxDP=1.70D-06 DE=-2.20D-08 OVMax= 3.15D-06

 Cycle   7  Pass 1  IDiag  1:
 E= -96.0782774725796     Delta-E=       -0.000000000088 Rises=F Damp=F
 DIIS: error= 1.33D-07 at cycle   7 NSaved=   7.
 NSaved= 7 IEnMin= 7 EnMin= -96.0782774725796     IErMin= 7 ErrMin= 1.33D-07
 ErrMax= 1.33D-07 EMaxC= 1.00D-01 BMatC= 5.22D-13 BMatP= 9.01D-11
 IDIUse=1 WtCom= 1.00D+00 WtEn= 0.00D+00
 Coeff-Com: -0.280D-04 0.404D-03 0.147D-02 0.603D-02 0.262D-01 0.221D+00
 Coeff-Com:  0.745D+00
 Coeff:     -0.280D-04 0.404D-03 0.147D-02 0.603D-02 0.262D-01 0.221D+00
 Coeff:      0.745D+00
 Gap=     0.365 Goal=   None    Shift=    0.000
 RMSDP=2.34D-08 MaxDP=1.94D-07 DE=-8.79D-11 OVMax= 3.75D-07

 Cycle   8  Pass 1  IDiag  1:
 E= -96.0782774725800     Delta-E=        0.000000000000 Rises=F Damp=F
 DIIS: error= 1.01D-08 at cycle   8 NSaved=   8.
 NSaved= 8 IEnMin= 8 EnMin= -96.0782774725800     IErMin= 8 ErrMin= 1.01D-08
 ErrMax= 1.01D-08 EMaxC= 1.00D-01 BMatC= 2.80D-15 BMatP= 5.22D-13
 IDIUse=1 WtCom= 1.00D+00 WtEn= 0.00D+00
 Coeff-Com: -0.303D-05 0.263D-04 0.920D-04 0.440D-03 0.203D-02 0.174D-01
 Coeff-Com:  0.100D+00 0.880D+00
 Coeff:     -0.303D-05 0.263D-04 0.920D-04 0.440D-03 0.203D-02 0.174D-01
 Coeff:      0.100D+00 0.880D+00
 Gap=     0.365 Goal=   None    Shift=    0.000
 RMSDP=1.93D-09 MaxDP=1.55D-08 DE=-3.98D-13 OVMax= 2.80D-08

 SCF Done:  E(RPBE-PBE) =  -96.0782774726     A.U. after    8 cycles
             Convg  =    0.1934D-08             -V/T =  2.0107
 KE= 9.505676993804D+01 PE=-3.122643609791D+02 EE= 7.371061752246D+01
 Leave Link  502 at Thu Feb 26 00:54:07 2015, MaxMem= 1073741824 cpu:       4.7
 (Enter /apps/gaussian/g09_c01/g09/l801.exe)
 Range of M.O.s used for correlation:     1    42
 NBasis=    42 NAE=     9 NBE=     9 NFC=     0 NFV=     0
 NROrb=     42 NOA=     9 NOB=     9 NVA=    33 NVB=    33
 Leave Link  801 at Thu Feb 26 00:54:07 2015, MaxMem= 1073741824 cpu:       0.1
 (Enter /apps/gaussian/g09_c01/g09/l1002.exe)
 Minotr:  Closed shell wavefunction.
          Direct CPHF calculation.
          Differentiating once with respect to electric field.
                with respect to dipole field.
          Electric field/nuclear overlap derivatives assumed to be zero.
          Using symmetry in CPHF.
          Requested convergence is 1.0D-08 RMS, and 1.0D-07 maximum.
          Secondary convergence is 1.0D-12 RMS, and 1.0D-12 maximum.
          NewPWx=F KeepS1=T KeepF1=T KeepIn=T MapXYZ=F SortEE=F KeepMc=T.
          MDV=    1073741756 using IRadAn=       1.
 Generate precomputed XC quadrature information.
          Keep J ints in memory in canonical form, NReq=1231071.
 Symmetry not used in FoFDir.
 MinBra= 0 MaxBra= 2 Meth= 1.
 IRaf=       0 NMat=   1 IRICut=       1 DoRegI=T DoRafI=F ISym2E= 0 JSym2E=0.
          Solving linear equations simultaneously, MaxMat=       0.
          There are     3 degrees of freedom in the 1st order CPHF.  IDoFFX=0.
      3 vectors produced by pass  0 Test12= 9.90D-15 3.33D-08 XBig12= 1.12D+01 2.16D+00.
 AX will form     3 AO Fock derivatives at one time.
      3 vectors produced by pass  1 Test12= 9.90D-15 3.33D-08 XBig12= 6.99D-01 3.89D-01.
      3 vectors produced by pass  2 Test12= 9.90D-15 3.33D-08 XBig12= 2.38D-01 1.59D-01.
      3 vectors produced by pass  3 Test12= 9.90D-15 3.33D-08 XBig12= 1.49D-02 3.26D-02.
      3 vectors produced by pass  4 Test12= 9.90D-15 3.33D-08 XBig12= 3.77D-03 1.88D-02.
      3 vectors produced by pass  5 Test12= 9.90D-15 3.33D-08 XBig12= 1.59D-04 4.74D-03.
      3 vectors produced by pass  6 Test12= 9.90D-15 3.33D-08 XBig12= 4.03D-06 8.66D-04.
      3 vectors produced by pass  7 Test12= 9.90D-15 3.33D-08 XBig12= 2.66D-08 4.99D-05.
      1 vectors produced by pass  8 Test12= 9.90D-15 3.33D-08 XBig12= 8.70D-11 2.93D-06.
      1 vectors produced by pass  9 Test12= 9.90D-15 3.33D-08 XBig12= 3.68D-14 5.38D-08.
 Inverted reduced A of dimension    26 with in-core refinement.
 End of Minotr Frequency-dependent properties file   721 does not exist.
 End of Minotr Frequency-dependent properties file   722 does not exist.
 Leave Link 1002 at Thu Feb 26 00:54:08 2015, MaxMem= 1073741824 cpu:       6.2
 (Enter /apps/gaussian/g09_c01/g09/l1101.exe)
 Using compressed storage, NAtomX=     8.
 Will process   9 centers per pass.
 Leave Link 1101 at Thu Feb 26 00:54:08 2015, MaxMem= 1073741824 cpu:       0.9
 (Enter /apps/gaussian/g09_c01/g09/l1102.exe)
 Symmetrizing basis deriv contribution to polar:
 IMax=3 JMax=2 DiffMx= 0.00D+00
 Leave Link 1102 at Thu Feb 26 00:54:08 2015, MaxMem= 1073741824 cpu:       0.1
 (Enter /apps/gaussian/g09_c01/g09/l1110.exe)
 Forming Gx(P) for the SCF density, NAtomX=     8.
 Integral derivatives from FoFDir/FoFCou, PRISM(SPDF).
 Do as many integral derivatives as possible in FoFDir.
 G2DrvN: MDV=    1073741656.
 G2DrvN: will do     9 centers at a time, making    1 passes doing MaxLOS=2.
 Calling FoFCou, ICntrl=  3507 FMM=F I1Cent=   0 AccDes= 0.00D+00.
 FoFCou: FMM=F IPFlag=           0 FMFlag=      100000 FMFlg1=           0
         NFxFlg=           0 DoJE=F BraDBF=F KetDBF=F FulRan=T
         Omega=  0.000000  0.000000  1.000000  0.000000  0.000000 ICntrl=    3507 IOpCl=  0
         NMat0=    1 NMatS0=    1 NMatT0=    0 NMatD0=    4 NMtDS0=    3 NMtDT0=    0
         I1Cent=           0 NGrid=           0.
 Petite list used in FoFCou.
 FoFDir/FoFCou used for L=0 through L=2.
 End of G2Drv Frequency-dependent properties file   721 does not exist.
 End of G2Drv Frequency-dependent properties file   722 does not exist.
 Leave Link 1110 at Thu Feb 26 00:54:10 2015, MaxMem= 1073741824 cpu:      12.9
 (Enter /apps/gaussian/g09_c01/g09/l1002.exe)
 Minotr:  Closed shell wavefunction.
          IDoAtm=11111111
          Direct CPHF calculation.
          Differentiating once with respect to electric field.
                with respect to dipole field.
          Differentiating once with respect to nuclear coordinates.
          Using symmetry in CPHF.
          Requested convergence is 1.0D-08 RMS, and 1.0D-07 maximum.
          Secondary convergence is 1.0D-12 RMS, and 1.0D-12 maximum.
          NewPWx=T KeepS1=F KeepF1=F KeepIn=T MapXYZ=F SortEE=F KeepMc=T.
          MDV=    1073741740 using IRadAn=       1.
 Generate precomputed XC quadrature information.
          Keep J ints in memory in canonical form, NReq=1231239.
 Symmetry not used in FoFDir.
 MinBra= 0 MaxBra= 2 Meth= 1.
 IRaf=       0 NMat=   1 IRICut=       1 DoRegI=T DoRafI=F ISym2E= 0 JSym2E=0.
          Solving linear equations simultaneously, MaxMat=       0.
          There are    15 degrees of freedom in the 1st order CPHF.  IDoFFX=4.
 Will reuse    3 saved solutions.
     12 vectors produced by pass  0 Test12= 1.98D-15 6.67D-09 XBig12= 9.56D-02 1.38D-01.
 AX will form    12 AO Fock derivatives at one time.
     12 vectors produced by pass  1 Test12= 1.98D-15 6.67D-09 XBig12= 1.93D-02 4.01D-02.
     12 vectors produced by pass  2 Test12= 1.98D-15 6.67D-09 XBig12= 8.51D-05 3.10D-03.
     12 vectors produced by pass  3 Test12= 1.98D-15 6.67D-09 XBig12= 2.66D-08 5.18D-05.
     12 vectors produced by pass  4 Test12= 1.98D-15 6.67D-09 XBig12= 4.61D-12 5.53D-07.
 Inverted reduced A of dimension    60 with in-core refinement.
 FullF1:  Do perturbations    1 to    15.
 Isotropic polarizability for W=    0.000000       17.39 Bohr**3.
 FullF1:  Do perturbations    1 to     6.
 End of Minotr Frequency-dependent properties file   721 does not exist.
 End of Minotr Frequency-dependent properties file   722 does not exist.
 Leave Link 1002 at Thu Feb 26 00:54:11 2015, MaxMem= 1073741824 cpu:      10.0
 (Enter /apps/gaussian/g09_c01/g09/l701.exe)
 Compute integral second derivatives.
 ... and contract with generalized density number  0.
 Leave Link  701 at Thu Feb 26 00:54:11 2015, MaxMem= 1073741824 cpu:       1.2
 (Enter /apps/gaussian/g09_c01/g09/l702.exe)
 L702 exits ... SP integral derivatives will be done elsewhere.
 Leave Link  702 at Thu Feb 26 00:54:11 2015, MaxMem= 1073741824 cpu:       0.1
 (Enter /apps/gaussian/g09_c01/g09/l703.exe)
 Compute integral second derivatives, UseDBF=F ICtDFT=           0.
 Integral derivatives from FoFDir, PRISM(SPDF).
 Calling FoFJK, ICntrl=    100527 FMM=F ISym2X=1 I1Cent= 0 IOpClX= 0 NMat=1 NMatS=1 NMatT=0.
 FoFCou: FMM=F IPFlag=           0 FMFlag=      100000 FMFlg1=         800
         NFxFlg=           0 DoJE=F BraDBF=F KetDBF=F FulRan=T
         Omega=  0.000000  0.000000  1.000000  0.000000  0.000000 ICntrl=  100527 IOpCl=  0
         NMat0=    1 NMatS0=    1 NMatT0=    0 NMatD0=    1 NMtDS0=    0 NMtDT0=    0
         I1Cent=           0 NGrid=           0.
 Petite list used in FoFCou.
 Leave Link  703 at Thu Feb 26 00:54:13 2015, MaxMem= 1073741824 cpu:      11.1
 (Enter /apps/gaussian/g09_c01/g09/l716.exe)
 Dipole        =-6.14092110D-16-1.42941214D-15 9.09406794D-01
 Polarizability= 1.67994932D+01 1.14746087D-05 1.67995028D+01
                 1.01309427D-06 1.91098965D-05 1.85733674D+01
 HyperPolar    = 5.42990381D+00-1.54907223D+00-5.43008490D+00
                 1.54853919D+00-2.60516672D+00-2.64013038D-04
                -2.60553443D+00-2.04756148D-04-1.33164304D-04
                 5.24681772D+00
 ***** Axes restored to original set *****
 -------------------------------------------------------------------
 Center     Atomic                   Forces (Hartrees/Bohr)
 Number     Number              X              Y              Z
 -------------------------------------------------------------------
      1        6           0.000000000    0.000000000    0.000129583
      2        1          -0.000011240   -0.000119544   -0.000041869
      3        1          -0.000097908    0.000069506   -0.000041869
      4        1           0.000109148    0.000050038   -0.000041869
      5        7           0.000000000    0.000000000   -0.000152258
      6        1           0.000011763    0.000126100    0.000049427
      7        1          -0.000115088   -0.000052863    0.000049427
      8        1           0.000103324   -0.000073238    0.000049427
 -------------------------------------------------------------------
 Cartesian Forces:  Max     0.000152258 RMS     0.000077442
 Force constants in Cartesian coordinates: 
                1             2             3             4             5 
      1  0.612995D+00
      2  0.000000D+00  0.612995D+00
      3  0.000000D+00  0.000000D+00  0.399745D+00
      4 -0.505907D-01 -0.236513D-01 -0.768902D-02  0.470554D-01
      5 -0.236516D-01 -0.302681D+00 -0.826294D-01  0.251061D-01  0.314647D+00
      6 -0.637050D-02 -0.684538D-01 -0.690936D-01  0.783742D-02  0.842244D-01
      7 -0.219176D+00  0.120984D+00 -0.677146D-01  0.408222D-02 -0.352658D-02
      8  0.120984D+00 -0.134096D+00  0.479736D-01  0.223625D-01 -0.120791D-01
      9 -0.560975D-01  0.397439D-01 -0.690936D-01  0.901762D-02 -0.428224D-02
     10 -0.260141D+00 -0.973324D-01  0.754036D-01  0.117452D-03  0.123752D-02
     11 -0.973329D-01 -0.931306D-01  0.346558D-01 -0.246516D-01 -0.811430D-02
     12  0.624679D-01  0.287098D-01 -0.690936D-01 -0.965263D-02 -0.254540D-02
     13 -0.923709D-01  0.000000D+00  0.000000D+00 -0.141606D-02  0.712816D-03
     14  0.000000D+00 -0.923705D-01  0.000000D+00  0.712480D-03  0.618036D-02
     15  0.000000D+00  0.000000D+00 -0.154905D+00  0.378162D-03  0.407015D-02
     16 -0.168065D-03  0.612928D-03 -0.196322D-03  0.491001D-03  0.651742D-04
     17  0.612654D-03  0.635707D-02 -0.211357D-02  0.651001D-04  0.118495D-02
     18 -0.300824D-02 -0.323258D-01 -0.125196D-01  0.209506D-03  0.225388D-02
     19  0.525652D-02  0.251921D-02  0.192837D-02  0.218205D-03  0.218811D-03
     20  0.251896D-02  0.932517D-03  0.886666D-03  0.774397D-03  0.343215D-03
     21  0.294991D-01  0.135577D-01 -0.125195D-01  0.486951D-03 -0.595774D-03
     22  0.419508D-02 -0.313175D-02 -0.173218D-02  0.425589D-04 -0.162304D-03
     23 -0.313199D-02  0.199392D-02  0.122668D-02 -0.717778D-03  0.519334D-03
     24 -0.264909D-01  0.187681D-01 -0.125195D-01 -0.588038D-03 -0.495760D-03
                6             7             8             9            10 
      6  0.839180D-01
      7  0.262193D-02  0.226006D+00
      8  0.963212D-02 -0.128424D+00  0.135696D+00
      9  0.475858D-02  0.690218D-01 -0.488996D-01  0.839180D-01
     10 -0.800278D-03 -0.161949D-01 -0.106555D-01  0.703070D-02  0.269491D+00
     11  0.995061D-02  0.152336D-01  0.819810D-02 -0.708672D-02  0.103317D+00
     12  0.475858D-02 -0.821734D-02 -0.566837D-02  0.475858D-02 -0.768592D-01
     13 -0.325540D-02  0.366413D-02 -0.364551D-02 -0.286793D-01  0.489857D-02
     14 -0.349955D-01 -0.364588D-02  0.110026D-02  0.203170D-01  0.293288D-02
     15 -0.197338D-01  0.333581D-02 -0.236264D-02 -0.197337D-01 -0.371409D-02
     16  0.154500D-03 -0.118109D-03 -0.580225D-03 -0.825476D-03  0.190539D-04
     17  0.165767D-02 -0.246400D-04  0.679529D-03  0.585666D-03  0.148733D-03
     18 -0.663634D-02 -0.759431D-03 -0.123825D-03  0.101374D-02  0.723359D-03
     19 -0.944634D-04  0.781227D-03  0.291308D-03 -0.826262D-03  0.106787D-02
     20 -0.100772D-02 -0.264166D-03 -0.219334D-03  0.584653D-03  0.267883D-03
     21  0.101374D-02 -0.135322D-03  0.757136D-03  0.101475D-02 -0.205667D-02
     22 -0.931932D-04  0.955053D-03 -0.333021D-03  0.135833D-02  0.742034D-03
     23 -0.100789D-02 -0.333095D-03  0.720899D-03 -0.962635D-03  0.836214D-04
     24  0.101475D-02  0.184717D-02 -0.130838D-02 -0.663634D-02  0.272480D-03
               11            12            13            14            15 
     11  0.922107D-01
     12 -0.353248D-01  0.839180D-01
     13  0.293325D-02  0.319346D-01  0.698698D+00
     14 -0.134121D-03  0.146785D-01  0.000000D+00  0.698698D+00
     15 -0.170764D-02 -0.197337D-01  0.000000D+00  0.000000D+00  0.502940D+00
     16  0.704207D-03  0.919455D-03 -0.655766D-01 -0.260791D-01 -0.967256D-02
     17  0.542839D-03  0.423237D-03 -0.260789D-01 -0.343406D+00 -0.103918D+00
     18 -0.261376D-03  0.101475D-02 -0.104236D-01 -0.111989D+00 -0.962777D-01
     19  0.267958D-03 -0.151283D-02 -0.296533D+00 -0.107264D+00  0.948317D-01
     20  0.608078D-03 -0.695033D-03 -0.107264D+00 -0.112449D+00  0.435823D-01
     21 -0.945505D-03 -0.663634D-02  0.102197D+00  0.469672D-01 -0.962778D-01
     22 -0.471964D-03  0.919939D-03 -0.251363D+00  0.133343D+00 -0.851592D-01
     23 -0.180614D-03  0.422050D-03  0.133343D+00 -0.157619D+00  0.603356D-01
     24  0.719598D-03  0.101374D-02 -0.917732D-01  0.650214D-01 -0.962778D-01
               16            17            18            19            20 
     16  0.599340D-01
     17  0.283006D-01  0.361422D+00
     18  0.106249D-01  0.114159D+00  0.101697D+00
     19  0.909392D-04  0.793704D-03 -0.616410D-03  0.310559D+00
     20 -0.317032D-01 -0.107722D-01  0.143233D-01  0.116398D+00  0.110797D+00
     21 -0.137171D-01 -0.416698D-02  0.585390D-02 -0.104177D+00 -0.478783D-01
     22  0.532783D-02 -0.381722D-02  0.324986D-02 -0.214406D-01  0.192720D-01
     23  0.286797D-01 -0.160090D-01  0.139629D-01 -0.132249D-01  0.107594D-01
     24  0.127126D-01 -0.662784D-02  0.585390D-02  0.104673D-01 -0.979590D-02
               21            22            23            24 
     21  0.101697D+00
     22 -0.120962D-01  0.261541D+00
     23 -0.769549D-02 -0.144699D+00  0.159815D+00
     24  0.585390D-02  0.935526D-01 -0.662812D-01  0.101697D+00
 Force constants in internal coordinates: 
                1             2             3             4             5 
      1  0.344436D+00
      2  0.130617D-02  0.344436D+00
      3  0.130620D-02  0.130616D-02  0.344436D+00
      4  0.266482D-02  0.266477D-02  0.266472D-02  0.265489D+00
      5 -0.156076D-02  0.269720D-03  0.269375D-03  0.579491D-02  0.406983D+00
      6  0.269715D-03  0.269387D-03 -0.156070D-02  0.579466D-02  0.138490D-02
      7  0.269383D-03 -0.156076D-02  0.269722D-03  0.579472D-02  0.138487D-02
      8  0.391016D-02  0.390909D-02 -0.132200D-02 -0.256562D-01 -0.176273D-03
      9  0.390908D-02 -0.132200D-02  0.391019D-02 -0.256562D-01 -0.175768D-03
     10  0.212732D-03 -0.350279D-02 -0.350249D-02  0.268222D-01  0.286464D-02
     11 -0.132201D-02  0.391017D-02  0.390912D-02 -0.256562D-01  0.865646D-03
     12 -0.350244D-02  0.212678D-03 -0.350281D-02  0.268222D-01 -0.170116D-02
     13 -0.350280D-02 -0.350242D-02  0.212702D-03  0.268222D-01 -0.170043D-02
     14  0.719080D-03 -0.939524D-05 -0.103113D-04  0.146217D-01 -0.525054D-02
     15 -0.941755D-05 -0.103221D-04  0.719047D-03  0.146219D-01 -0.356514D-02
     16 -0.103428D-04  0.719049D-03 -0.934637D-05  0.146219D-01 -0.356446D-02
     17 -0.335707D-03 -0.813132D-04 -0.335482D-03 -0.157331D-01  0.667373D-02
     18 -0.335460D-03 -0.335709D-03 -0.813220D-04 -0.157331D-01  0.667954D-02
     19 -0.813015D-04 -0.335460D-03 -0.335740D-03 -0.157331D-01 -0.322270D-04
     20  0.000000D+00 -0.274350D-02  0.274373D-02  0.000000D+00  0.419255D-05
     21  0.580094D-04 -0.286080D-02  0.280220D-02  0.000000D+00  0.246823D-02
     22 -0.593071D-04 -0.280231D-02  0.286101D-02  0.000000D+00 -0.246772D-02
     23  0.280221D-02  0.580034D-04 -0.286082D-02  0.000000D+00  0.460219D-03
     24  0.286103D-02 -0.592985D-04 -0.280235D-02  0.000000D+00  0.292426D-02
     25  0.274371D-02  0.000000D+00 -0.274354D-02  0.000000D+00 -0.201170D-02
     26 -0.280232D-02  0.286101D-02 -0.592740D-04  0.000000D+00 -0.452860D-03
     27 -0.274351D-02  0.274371D-02  0.000000D+00  0.000000D+00  0.201118D-02
     28 -0.286082D-02  0.280220D-02  0.579982D-04  0.000000D+00 -0.292477D-02
                6             7             8             9            10 
      6  0.406983D+00
      7  0.138487D-02  0.406983D+00
      8  0.865640D-03 -0.175767D-03  0.516396D-01
      9 -0.176283D-03  0.865640D-03  0.116694D-01  0.516396D-01
     10 -0.170116D-02 -0.170040D-02 -0.446407D-01 -0.446376D-01  0.128905D+00
     11 -0.175793D-03 -0.176266D-03  0.116694D-01  0.116694D-01  0.108924D-01
     12 -0.170038D-02  0.286462D-02 -0.446376D-01  0.108924D-01 -0.234782D-01
     13  0.286464D-02 -0.170117D-02  0.108924D-01 -0.446407D-01 -0.234782D-01
     14 -0.356450D-02 -0.356512D-02 -0.413642D-02 -0.413630D-02  0.167396D-01
[...]
      4        1           0.000000034   -0.000000071   -0.000000008
      5        7           0.000000000    0.000000000   -0.000000028
      6        1           0.000000072   -0.000000012   -0.000000002
      7        1          -0.000000026    0.000000068   -0.000000002
      8        1          -0.000000046   -0.000000056   -0.000000002
 -------------------------------------------------------------------
 Cartesian Forces:  Max     0.000000078 RMS     0.000000040
 Force constants in Cartesian coordinates: 
                1             2             3             4             5 
      1  0.612502D+00
      2  0.000000D+00  0.612502D+00
      3  0.000000D+00  0.000000D+00  0.399815D+00
      4 -0.506194D-01 -0.236172D-01 -0.767871D-02  0.470907D-01
      5 -0.236174D-01 -0.302329D+00 -0.825127D-01  0.250717D-01  0.314297D+00
      6 -0.636010D-02 -0.683374D-01 -0.690992D-01  0.782723D-02  0.841098D-01
      7 -0.218948D+00  0.120802D+00 -0.676187D-01  0.407809D-02 -0.352253D-02
      8  0.120802D+00 -0.134000D+00  0.479063D-01  0.223518D-01 -0.120779D-01
      9 -0.560019D-01  0.396767D-01 -0.690993D-01  0.901255D-02 -0.428049D-02
     10 -0.259855D+00 -0.971844D-01  0.752974D-01  0.114398D-03  0.123409D-02
     11 -0.971848D-01 -0.930935D-01  0.346064D-01 -0.246403D-01 -0.811425D-02
     12  0.623620D-01  0.286606D-01 -0.690993D-01 -0.964737D-02 -0.254450D-02
     13 -0.923561D-01  0.000000D+00  0.000000D+00 -0.141592D-02  0.712359D-03
     14  0.000000D+00 -0.923557D-01  0.000000D+00  0.712089D-03  0.617528D-02
     15  0.000000D+00  0.000000D+00 -0.154963D+00  0.377802D-03  0.406539D-02
     16 -0.168321D-03  0.612413D-03 -0.196736D-03  0.491388D-03  0.652652D-04
     17  0.612198D-03  0.635230D-02 -0.211766D-02  0.652003D-04  0.118636D-02
     18 -0.300775D-02 -0.323220D-01 -0.125182D-01  0.209526D-03  0.225368D-02
     19  0.525245D-02  0.251747D-02  0.193213D-02  0.218245D-03  0.218785D-03
     20  0.251728D-02  0.931553D-03  0.888356D-03  0.774272D-03  0.343154D-03
     21  0.294956D-01  0.135562D-01 -0.125182D-01  0.486413D-03 -0.595614D-03
     22  0.419186D-02 -0.312958D-02 -0.173552D-02  0.425783D-04 -0.162290D-03
     23 -0.312976D-02  0.199212D-02  0.122908D-02 -0.717686D-03  0.519205D-03
     24 -0.264879D-01  0.187658D-01 -0.125182D-01 -0.587475D-03 -0.495693D-03
                6             7             8             9            10 
      6  0.839214D-01
      7  0.262009D-02  0.225783D+00
      8  0.962711D-02 -0.128240D+00  0.135605D+00
      9  0.475630D-02  0.689276D-01 -0.488335D-01  0.839214D-01
     10 -0.799260D-03 -0.161923D-01 -0.106487D-01  0.702728D-02  0.269208D+00
     11  0.994535D-02  0.152256D-01  0.819241D-02 -0.708262D-02  0.103168D+00
     12  0.475630D-02 -0.821329D-02 -0.566485D-02  0.475630D-02 -0.767548D-01
     13 -0.325467D-02  0.366073D-02 -0.364308D-02 -0.286717D-01  0.489443D-02
     14 -0.349863D-01 -0.364338D-02  0.109872D-02  0.203118D-01  0.293087D-02
     15 -0.197276D-01  0.333186D-02 -0.235994D-02 -0.197275D-01 -0.370979D-02
     16  0.154362D-03 -0.118080D-03 -0.580095D-03 -0.825183D-03  0.190072D-04
     17  0.165664D-02 -0.246079D-04  0.679479D-03  0.585805D-03  0.148681D-03
     18 -0.663372D-02 -0.759023D-03 -0.123439D-03  0.101279D-02  0.723020D-03
     19 -0.947307D-04  0.781089D-03  0.291307D-03 -0.826264D-03  0.106911D-02
     20 -0.100753D-02 -0.264089D-03 -0.219306D-03  0.584314D-03  0.268281D-03
     21  0.101279D-02 -0.135545D-03  0.756615D-03  0.101374D-02 -0.205650D-02
     22 -0.928989D-04  0.956121D-03 -0.333514D-03  0.135752D-02  0.741933D-03
     23 -0.100772D-02 -0.333579D-03  0.721623D-03 -0.962004D-03  0.835667D-04
     24  0.101374D-02  0.184698D-02 -0.130829D-02 -0.663372D-02  0.272611D-03
               11            12            13            14            15 
     11  0.921795D-01
     12 -0.352763D-01  0.839214D-01
     13  0.293118D-02  0.319263D-01  0.698131D+00
     14 -0.134925D-03  0.146745D-01  0.000000D+00  0.698131D+00
     15 -0.170558D-02 -0.197275D-01  0.000000D+00  0.000000D+00  0.502931D+00
     16  0.704077D-03  0.919163D-03 -0.656061D-01 -0.260365D-01 -0.965645D-02
     17  0.542776D-03  0.423409D-03 -0.260363D-01 -0.343004D+00 -0.103753D+00
     18 -0.260922D-03  0.101374D-02 -0.104064D-01 -0.111813D+00 -0.962617D-01
     19  0.268346D-03 -0.151188D-02 -0.296202D+00 -0.107098D+00  0.946810D-01
     20  0.608637D-03 -0.694641D-03 -0.107098D+00 -0.112407D+00  0.435138D-01
     21 -0.945383D-03 -0.663372D-02  0.102036D+00  0.468942D-01 -0.962618D-01
     22 -0.471921D-03  0.919914D-03 -0.251106D+00  0.133135D+00 -0.850246D-01
     23 -0.180534D-03  0.421727D-03  0.133135D+00 -0.157504D+00  0.602393D-01
     24  0.719053D-03  0.101279D-02 -0.916298D-01  0.649188D-01 -0.962618D-01
               16            17            18            19            20 
     16  0.599708D-01
     17  0.282570D-01  0.361019D+00
     18  0.106088D-01  0.113994D+00  0.101685D+00
     19  0.884391D-04  0.790585D-03 -0.616322D-03  0.310228D+00
     20 -0.316882D-01 -0.107710D-01  0.143161D-01  0.116229D+00  0.110762D+00
     21 -0.137102D-01 -0.416485D-02  0.585114D-02 -0.104026D+00 -0.478095D-01
     22  0.532293D-02 -0.381272D-02  0.324822D-02 -0.214352D-01  0.192615D-01
     23  0.286661D-01 -0.160055D-01  0.139558D-01 -0.132173D-01  0.107526D-01
     24  0.127062D-01 -0.662428D-02  0.585114D-02  0.104620D-01 -0.979094D-02
               21            22            23            24 
     21  0.101685D+00
     22 -0.120899D-01  0.261286D+00
     23 -0.769178D-02 -0.144486D+00  0.159704D+00
     24  0.585114D-02  0.934172D-01 -0.661844D-01  0.101685D+00
 Red2BG is reusing G-inverse.
 Force constants in internal coordinates: 
                1             2             3             4             5 
      1  0.344049D+00
      2  0.130916D-02  0.344049D+00
      3  0.130918D-02  0.130914D-02  0.344049D+00
      4  0.266825D-02  0.266820D-02  0.266814D-02  0.265522D+00
      5 -0.156186D-02  0.269664D-03  0.269301D-03  0.579914D-02  0.406514D+00
      6  0.269658D-03  0.269313D-03 -0.156181D-02  0.579889D-02  0.138798D-02
      7  0.269309D-03 -0.156187D-02  0.269666D-03  0.579895D-02  0.138795D-02
      8  0.390922D-02  0.390815D-02 -0.132110D-02 -0.256525D-01 -0.176732D-03
      9  0.390814D-02 -0.132111D-02  0.390925D-02 -0.256525D-01 -0.176270D-03
     10  0.216970D-03 -0.350405D-02 -0.350375D-02  0.268156D-01  0.286609D-02
     11 -0.132112D-02  0.390922D-02  0.390818D-02 -0.256525D-01  0.865600D-03
     12 -0.350370D-02  0.216916D-03 -0.350406D-02  0.268156D-01 -0.170138D-02
     13 -0.350406D-02 -0.350368D-02  0.216940D-03  0.268157D-01 -0.170055D-02
     14  0.719278D-03 -0.924369D-05 -0.101231D-04  0.146200D-01 -0.524685D-02
     15 -0.926595D-05 -0.101339D-04  0.719245D-03  0.146201D-01 -0.356544D-02
     16 -0.101546D-04  0.719247D-03 -0.919472D-05  0.146201D-01 -0.356476D-02
     17 -0.335916D-03 -0.814894D-04 -0.335714D-03 -0.157320D-01  0.667226D-02
     18 -0.335693D-03 -0.335918D-03 -0.814982D-04 -0.157320D-01  0.667803D-02
     19 -0.814778D-04 -0.335692D-03 -0.335949D-03 -0.157320D-01 -0.318718D-04
     20  0.000000D+00 -0.274401D-02  0.274425D-02  0.000000D+00  0.417616D-05
     21  0.580160D-04 -0.286131D-02  0.280272D-02  0.000000D+00  0.246843D-02
     22 -0.592968D-04 -0.280282D-02  0.286152D-02  0.000000D+00 -0.246791D-02
     23  0.280273D-02  0.580099D-04 -0.286132D-02  0.000000D+00  0.460446D-03
     24  0.286154D-02 -0.592881D-04 -0.280286D-02  0.000000D+00  0.292470D-02
     25  0.274423D-02  0.000000D+00 -0.274406D-02  0.000000D+00 -0.201164D-02
     26 -0.280284D-02  0.286152D-02 -0.592636D-04  0.000000D+00 -0.453122D-03
     27 -0.274402D-02  0.274422D-02  0.000000D+00  0.000000D+00  0.201113D-02
     28 -0.286133D-02  0.280271D-02  0.580048D-04  0.000000D+00 -0.292520D-02
                6             7             8             9            10 
      6  0.406514D+00
      7  0.138795D-02  0.406514D+00
      8  0.865593D-03 -0.176270D-03  0.516362D-01
      9 -0.176741D-03  0.865594D-03  0.116686D-01  0.516362D-01
     10 -0.170138D-02 -0.170053D-02 -0.446357D-01 -0.446327D-01  0.128882D+00
     11 -0.176295D-03 -0.176724D-03  0.116686D-01  0.116686D-01  0.108955D-01
     12 -0.170051D-02  0.286607D-02 -0.446327D-01  0.108955D-01 -0.234781D-01
     13  0.286609D-02 -0.170139D-02  0.108955D-01 -0.446357D-01 -0.234781D-01
     14 -0.356480D-02 -0.356542D-02 -0.413628D-02 -0.413620D-02  0.167365D-01
     15 -0.524684D-02 -0.356475D-02  0.329576D-02 -0.413627D-02 -0.576640D-02
     16 -0.356544D-02 -0.524687D-02 -0.413620D-02  0.329575D-02 -0.576774D-02
     17  0.667804D-02 -0.318734D-04  0.811312D-03  0.373285D-02 -0.485682D-02
     18 -0.318677D-04  0.667226D-02  0.373285D-02  0.811080D-03 -0.485580D-02
     19  0.667228D-02  0.667802D-02  0.811080D-03  0.811317D-03  0.411456D-02
     20 -0.201165D-02  0.201112D-02 -0.581969D-02  0.581825D-02  0.174721D-05
     21  0.460429D-03 -0.292519D-02 -0.536144D-02  0.490199D-02  0.133586D-02
     22  0.292471D-02 -0.453132D-03 -0.490343D-02  0.536025D-02 -0.133276D-02
     23 -0.292520D-02  0.246842D-02  0.490200D-02  0.458286D-03  0.693589D-02
     24 -0.453121D-03 -0.246789D-02  0.536025D-02 -0.457971D-03  0.827001D-02
     25  0.201116D-02  0.417150D-05  0.581826D-02  0.000000D+00  0.560139D-02
     26 -0.246791D-02  0.292469D-02 -0.457981D-03 -0.490343D-02 -0.693604D-02
     27  0.417151D-05 -0.201163D-02  0.000000D+00 -0.581969D-02 -0.560192D-02
     28  0.246845D-02  0.460436D-03  0.458282D-03 -0.536144D-02 -0.827054D-02
               11            12            13            14            15 
     11  0.516362D-01
     12 -0.446357D-01  0.128882D+00
     13 -0.446327D-01 -0.234781D-01  0.128883D+00
     14  0.329574D-02 -0.576637D-02 -0.576776D-02  0.998027D-01
     15 -0.413619D-02 -0.576779D-02  0.167365D-01 -0.179531D-01  0.998028D-01
     16 -0.413629D-02  0.167366D-01 -0.576642D-02 -0.179531D-01 -0.179531D-01
     17  0.811085D-03  0.411456D-02 -0.485579D-02 -0.409550D-01 -0.409563D-01
     18  0.811315D-03 -0.485683D-02  0.411458D-02 -0.409563D-01  0.131550D-01
     19  0.373285D-02 -0.485580D-02 -0.485682D-02  0.131550D-01 -0.409550D-01
     20  0.000000D+00 -0.560191D-02  0.560139D-02 -0.104418D-05 -0.260052D-02
     21  0.458279D-03 -0.827055D-02  0.693590D-02  0.393266D-02  0.133153D-02
     22 -0.457977D-03 -0.693605D-02  0.827002D-02 -0.393308D-02  0.526524D-02
     23 -0.536144D-02  0.133587D-02 -0.827055D-02  0.133153D-02 -0.526497D-02
     24 -0.490342D-02 -0.133277D-02 -0.693604D-02  0.526523D-02 -0.133292D-02
     25 -0.581968D-02  0.172650D-05 -0.560193D-02 -0.260051D-02  0.260079D-02
     26  0.536024D-02  0.827003D-02 -0.133276D-02 -0.133291D-02 -0.393310D-02
     27  0.581826D-02  0.560139D-02  0.174949D-05  0.260079D-02 -0.104517D-05
     28  0.490200D-02  0.693588D-02  0.133587D-02 -0.526495D-02  0.393266D-02
               16            17            18            19            20 
     16  0.998028D-01
     17  0.131550D-01  0.547393D-01
     18 -0.409550D-01  0.962320D-02  0.547393D-01
     19 -0.409563D-01  0.962320D-02  0.962320D-02  0.547393D-01
     20  0.260078D-02 -0.735448D-02  0.735545D-02  0.000000D+00  0.144650D-01
     21 -0.526497D-02  0.626046D-02  0.547530D-03 -0.680715D-02  0.329324D-02
     22 -0.133292D-02 -0.547468D-03 -0.625950D-02  0.680779D-02  0.329327D-02
     23  0.393267D-02 -0.680715D-02  0.626045D-02  0.547528D-03  0.427074D-02
     24 -0.393307D-02  0.680779D-02 -0.547463D-03 -0.625951D-02 -0.690100D-02
     25 -0.102157D-05  0.000000D+00 -0.735449D-02  0.735544D-02 -0.690097D-02
     26  0.526523D-02 -0.625950D-02  0.680779D-02 -0.547456D-03  0.427076D-02
     27 -0.260052D-02  0.735545D-02  0.000000D+00 -0.735449D-02 -0.690097D-02
     28  0.133153D-02  0.547518D-03 -0.680715D-02  0.626045D-02 -0.690095D-02
               21            22            23            24            25 
     21  0.148970D-01
     22  0.350928D-02  0.148971D-01
     23 -0.711699D-02 -0.733303D-02  0.148970D-01
     24  0.448678D-02 -0.711702D-02  0.350928D-02  0.148971D-01
     25 -0.690095D-02  0.427076D-02  0.329324D-02  0.329325D-02  0.144650D-01
     26 -0.733303D-02 -0.711702D-02  0.448678D-02 -0.711701D-02 -0.690100D-02
     27  0.427074D-02 -0.690101D-02 -0.690095D-02  0.427076D-02 -0.690099D-02
     28 -0.711699D-02  0.448677D-02 -0.711699D-02 -0.733304D-02  0.427073D-02
               26            27            28 
     26  0.148971D-01
     27  0.329327D-02  0.144650D-01
     28  0.350928D-02  0.329323D-02  0.148970D-01
 Leave Link  716 at Thu Feb 26 00:54:25 2015, MaxMem= 1073741824 cpu:       0.1
 (Enter /apps/gaussian/g09_c01/g09/l9999.exe)
 1\1\GINC-CX1-1-2-1\Freq\RPBEPBE\6-31G(d)\C1H6N1(1+)\JMF02\26-Feb-2015\
 0\\#p opt(VeryTight,CalcAll,Raman) Integral(Grid=UltraFine) PBEPBE/6-3
 1g*\\Autjob by noodles.sh | Great noodly basis sets\\1,1\C,-0.00000005
 26,0.0000000526,-0.8029242067\H,-0.0965442592,-1.0377887311,-1.1481895
 979\H,-0.8504793998,0.60250418,-1.1481895979\H,0.9470235011,0.43528470
 9,-1.1481895979\N,-0.0000000526,0.0000000526,0.712410388\H,0.089217247
 ,0.9584449014,1.0939938636\H,-0.8746462896,-0.4019579238,1.0939938636\
 H,0.7854288847,-0.5564868197,1.0939938636\\Version=EM64L-G09RevC.01\St
 ate=1-A\HF=-96.0782776\RMSD=9.971e-09\RMSF=4.004e-08\ZeroPoint=0.07798
 93\Thermal=0.0814574\Dipole=0.,0.,0.9095429\DipoleDeriv=0.0713035,0.00
 00024,0.0000027,-0.0000013,0.0713031,0.0000022,-0.0000016,0.0000011,0.
 4750161,0.1372734,-0.0091939,-0.0007268,-0.0091932,0.0392956,-0.007824
 1,0.0043673,0.0469414,0.0725109,0.0717523,0.0470217,-0.0064125,0.04702
 16,0.1048171,0.0045416,0.0384695,-0.0272533,0.0725111,0.0558276,-0.037
 8285,0.0071379,-0.0378281,0.1207412,0.0032818,-0.0428358,-0.0196884,0.
 0725114,-0.1889284,-0.0000006,0.0000018,0.0000037,-0.1889286,0.0000012
 ,-0.0000027,0.0000008,-0.3614372,0.2690204,0.0028616,0.003341,0.002861
 9,0.299493,0.0358736,0.0018641,0.020012,0.2229617,0.2943534,0.0117641,
 -0.032739,0.0117645,0.2741603,-0.0150443,-0.0182627,-0.0083916,0.22296
 23,0.2893972,-0.0146266,0.0293972,-0.0146271,0.2791174,-0.0208304,0.01
 63997,-0.011621,0.222962\Polar=16.8057208,-0.0000115,16.8057113,0.0000
 191,-0.0000009,18.5779895\PolarDeriv=-0.8775544,-3.0717675,0.8776469,2
 .2941831,-0.0000393,0.0000138,-3.0717875,0.8776791,3.0717815,0.0000459
 ,2.2941761,0.0000028,1.4027391,-0.0000039,1.4027059,0.0000488,-0.00000
 4,-1.8942374,-0.2525895,-1.2766037,-0.3508123,-1.2272305,-0.0803437,-0
 .1380326,-0.2232845,-0.4488163,-6.2622158,-0.0803677,-2.0836569,-1.483
 5577,-0.3575162,-0.0430409,-0.8163793,-0.2119426,-2.2781537,-1.7307597
 ,-4.1688214,2.1185273,-1.1460922,-1.7999685,0.4110299,-1.2157794,1.506
 9533,-2.0092972,2.2582986,0.4110017,-1.5109299,0.8613235,-0.6643847,0.
 2202104,-0.50951,-1.8669864,1.3226189,-1.7307741,5.168263,1.7723764,0.
 7500109,-1.9391304,-0.3306552,1.3538061,1.3306308,1.7112083,1.3896087,
 -0.3306628,-1.3717479,0.622224,-0.738967,-0.1771728,-0.4349593,2.07890
 14,0.9555326,-1.7307689,0.7366268,2.5768426,-0.7366001,-2.3928306,-0.0
 000215,0.0000037,2.5768247,-0.7366268,-2.5768428,-0.0000214,-2.3928458
 ,-0.0000054,-2.0944858,-0.0000348,-2.0944952,-0.0000005,-0.0000048,0.6
 825363,0.2008924,0.9938051,0.2882956,1.0527459,0.1193717,0.1690524,0.2
 209701,0.3602257,5.034416,0.1193582,2.3239225,1.8164416,0.3452359,0.08
 87047,1.2898607,0.2042271,2.1940812,2.1346743,-4.1514945,-1.4195402,-0
 .6443798,2.1094966,0.4907628,-1.6576066,-1.0954118,-1.3496393,-1.10864
 74,0.4907379,1.2671721,-0.7618045,1.1305263,0.364683,0.504576,-2.00223
 86,-0.920183,2.1346805,3.3447278,-1.6936479,0.961965,1.9027573,-0.6101
 083,1.4885551,-1.2449284,1.5952999,-1.8063947,-0.6101192,1.4739119,-1.
 054628,0.9768765,-0.4533747,0.6581995,1.7980091,-1.2738967,2.1346673\H
 yperPolar=1.5496871,5.4321437,-1.5502207,-5.4319637,-2.6028914,0.00026
 42,-2.6025235,-0.0001333,0.0002048,5.2725988\PG=C03 [C3(C1N1),X(H6)]\N
 Imag=0\\0.61250224,-0.00000025,0.61250186,0.,-0.00000007,0.39981541,-0
 .05061945,-0.02361716,-0.00767871,0.04709071,-0.02361740,-0.30232867,-
 0.08251266,0.02507174,0.31429682,-0.00636010,-0.06833741,-0.06909923,0
 .00782723,0.08410980,0.08392142,-0.21894823,0.12080214,-0.06761873,0.0
 0407809,-0.00352253,0.00262009,0.22578253,0.12080195,-0.13399996,0.047
 90628,0.02235184,-0.01207794,0.00962711,-0.12823951,0.13560500,-0.0560
 0194,0.03967672,-0.06909927,0.00901255,-0.00428049,0.00475630,0.068927
 61,-0.04883348,0.08392142,-0.25985452,-0.09718443,0.07529741,0.0001144
 0,0.00123409,-0.00079926,-0.01619226,-0.01064874,0.00702728,0.26920805
 ,-0.09718481,-0.09309354,0.03460636,-0.02464028,-0.00811425,0.00994535
 ,0.01522562,0.00819241,-0.00708262,0.10316777,0.09217948,0.06236197,0.
 02866064,-0.06909929,-0.00964737,-0.00254450,0.00475630,-0.00821329,-0
 .00566485,0.00475630,-0.07675484,-0.03527632,0.08392142,-0.09235606,-0
 .00000074,0.00000034,-0.00141592,0.00071236,-0.00325467,0.00366073,-0.
 00364308,-0.02867169,0.00489443,0.00293118,0.03192629,0.69813110,0.000
 00065,-0.09235566,0.00000054,0.00071209,0.00617528,-0.03498629,-0.0036
 4338,0.00109872,0.02031175,0.00293087,-0.00013492,0.01467449,-0.000000
 27,0.69813111,0.00000029,0.00000025,-0.15496312,0.00037780,0.00406539,
 -0.01972759,0.00333186,-0.00235994,-0.01972753,-0.00370979,-0.00170558
 ,-0.01972751,-0.00000005,-0.00000041,0.50293098,-0.00016832,0.00061241
 ,-0.00019674,0.00049139,0.00006527,0.00015436,-0.00011808,-0.00058010,
 -0.00082518,0.00001901,0.00070408,0.00091916,-0.06560613,-0.02603653,-
 0.00965645,0.05997085,0.00061220,0.00635230,-0.00211766,0.00006520,0.0
 0118636,0.00165664,-0.00002461,0.00067948,0.00058581,0.00014868,0.0005
 4278,0.00042341,-0.02603631,-0.34300351,-0.10375293,0.02825703,0.36101
 903,-0.00300775,-0.03232203,-0.01251820,0.00020953,0.00225368,-0.00663
 372,-0.00075902,-0.00012344,0.00101279,0.00072302,-0.00026092,0.001013
 74,-0.01040644,-0.11181308,-0.09626172,0.01060877,0.11399389,0.1016848
 4,0.00525245,0.00251747,0.00193213,0.00021824,0.00021878,-0.00009473,0
 .00078109,0.00029131,-0.00082626,0.00106911,0.00026835,-0.00151188,-0.
 29620237,-0.10709837,0.09468102,0.00008844,0.00079058,-0.00061632,0.31
 022829,0.00251728,0.00093155,0.00088836,0.00077427,0.00034315,-0.00100
 753,-0.00026409,-0.00021931,0.00058431,0.00026828,0.00060864,-0.000694
 64,-0.10709829,-0.11240726,0.04351383,-0.03168823,-0.01077101,0.014316
 07,0.11622917,0.11076158,0.02949556,0.01355623,-0.01251815,0.00048641,
 -0.00059561,0.00101279,-0.00013555,0.00075661,0.00101374,-0.00205650,-
 0.00094538,-0.00663372,0.10203613,0.04689425,-0.09626178,-0.01371018,-
 0.00416485,0.00585114,-0.10402599,-0.04780948,0.10168484,0.00419186,-0
 .00312958,-0.00173552,0.00004258,-0.00016229,-0.00009290,0.00095612,-0
 .00033351,0.00135752,0.00074193,-0.00047192,0.00091991,-0.25110596,0.1
 3313478,-0.08502456,0.00532293,-0.00381272,0.00324822,-0.02143522,0.01
 926154,-0.01208992,0.26128568,-0.00312976,0.00199212,0.00122908,-0.000
 71769,0.00051920,-0.00100772,-0.00033358,0.00072162,-0.00096200,0.0000
 8357,-0.00018053,0.00042173,0.13313502,-0.15750374,0.06023930,0.028666
 09,-0.01600549,0.01395579,-0.01321727,0.01075265,-0.00769178,-0.144486
 20,0.15970420,-0.02648787,0.01876577,-0.01251815,-0.00058747,-0.000495
 69,0.00101374,0.00184698,-0.00130829,-0.00663372,0.00027261,0.00071905
 ,0.00101279,-0.09162977,0.06491881,-0.09626176,0.01270624,-0.00662428,
 0.00585114,0.01046196,-0.00979094,0.00585114,0.09341722,-0.06618441,0.
 10168484\\0.,0.,-0.00000006,0.00000008,0.,0.,-0.00000004,-0.00000006,0
 .,-0.00000003,0.00000007,0.,0.,0.,0.00000003,-0.00000007,0.00000001,0.
 ,0.00000003,-0.00000007,0.,0.00000005,0.00000006,0.\\\@


 "PERFECTION IS NOT AN ACCIDENT"
         --  EAGLE ELECTRIC MANUFACTURING CO.,INC. NY
 Job cpu time:  0 days  0 hours  3 minutes 20.3 seconds.
 File lengths (MBytes):  RWF=      5 Int=      0 D2E=      0 Chk=      1 Scr=      1
 Normal termination of Gaussian 09 at Thu Feb 26 00:54:25 2015.
