 Entering Gaussian System, Link 0=g03
 Input=MA_PBEPBE_AUG-cc-pVQZ.com
 Output=MA_PBEPBE_AUG-cc-pVQZ.log
 Initial command:
 /apps/gaussian/g09_c01/g09/l1.exe /tmp/pbs.8910305.cx1b/Gau-12667.inp -scrdir=/tmp/pbs.8910305.cx1b/
 Entering Link 1 = /apps/gaussian/g09_c01/g09/l1.exe PID=     12672.
  
 Copyright (c) 1988,1990,1992,1993,1995,1998,2003,2009,2011,
            Gaussian, Inc.  All Rights Reserved.
  
 This is part of the Gaussian(R) 09 program.  It is based on
 the Gaussian(R) 03 system (copyright 2003, Gaussian, Inc.),
 the Gaussian(R) 98 system (copyright 1998, Gaussian, Inc.),
 the Gaussian(R) 94 system (copyright 1995, Gaussian, Inc.),
 the Gaussian 92(TM) system (copyright 1992, Gaussian, Inc.),
 the Gaussian 90(TM) system (copyright 1990, Gaussian, Inc.),
 the Gaussian 88(TM) system (copyright 1988, Gaussian, Inc.),
 the Gaussian 86(TM) system (copyright 1986, Carnegie Mellon
 University), and the Gaussian 82(TM) system (copyright 1983,
 Carnegie Mellon University). Gaussian is a federally registered
 trademark of Gaussian, Inc.
  
 This software contains proprietary and confidential information,
 including trade secrets, belonging to Gaussian, Inc.
  
 This software is provided under written license and may be
 used, copied, transmitted, or stored only in accord with that
 written license.
  
 The following legend is applicable only to US Government
 contracts under FAR:
  
                    RESTRICTED RIGHTS LEGEND
  
 Use, reproduction and disclosure by the US Government is
 subject to restrictions as set forth in subparagraphs (a)
 and (c) of the Commercial Computer Software - Restricted
 Rights clause in FAR 52.227-19.
  
 Gaussian, Inc.
 340 Quinnipiac St., Bldg. 40, Wallingford CT 06492
  
  
 ---------------------------------------------------------------
 Warning -- This program may not be used in any manner that
 competes with the business of Gaussian, Inc. or will provide
 assistance to any competitor of Gaussian, Inc.  The licensee
 of this program is prohibited from giving any competitor of
 Gaussian, Inc. access to this program.  By using this program,
 the user acknowledges that Gaussian, Inc. is engaged in the
 business of creating and licensing software in the field of
 computational chemistry and represents and warrants to the
 licensee that it is not a competitor of Gaussian, Inc. and that
 it will not use this program in any manner prohibited above.
 ---------------------------------------------------------------
  

 Cite this work as:
 Gaussian 09, Revision C.01,
 M. J. Frisch, G. W. Trucks, H. B. Schlegel, G. E. Scuseria, 
 M. A. Robb, J. R. Cheeseman, G. Scalmani, V. Barone, B. Mennucci, 
 G. A. Petersson, H. Nakatsuji, M. Caricato, X. Li, H. P. Hratchian, 
 A. F. Izmaylov, J. Bloino, G. Zheng, J. L. Sonnenberg, M. Hada, 
 M. Ehara, K. Toyota, R. Fukuda, J. Hasegawa, M. Ishida, T. Nakajima, 
 Y. Honda, O. Kitao, H. Nakai, T. Vreven, J. A. Montgomery, Jr., 
 J. E. Peralta, F. Ogliaro, M. Bearpark, J. J. Heyd, E. Brothers, 
 K. N. Kudin, V. N. Staroverov, T. Keith, R. Kobayashi, J. Normand, 
 K. Raghavachari, A. Rendell, J. C. Burant, S. S. Iyengar, J. Tomasi, 
 M. Cossi, N. Rega, J. M. Millam, M. Klene, J. E. Knox, J. B. Cross, 
 V. Bakken, C. Adamo, J. Jaramillo, R. Gomperts, R. E. Stratmann, 
 O. Yazyev, A. J. Austin, R. Cammi, C. Pomelli, J. W. Ochterski, 
 R. L. Martin, K. Morokuma, V. G. Zakrzewski, G. A. Voth, 
 P. Salvador, J. J. Dannenberg, S. Dapprich, A. D. Daniels, 
 O. Farkas, J. B. Foresman, J. V. Ortiz, J. Cioslowski, 
 and D. J. Fox, Gaussian, Inc., Wallingford CT, 2010.
 
 ******************************************
 Gaussian 09:  EM64L-G09RevC.01 23-Sep-2011
                26-Feb-2015 
 ******************************************
 %Chk=MA_PBEPBE_AUG-cc-pVQZ.chk
 %Mem=8Gb
 %nproc=8
 Will use up to    8 processors via shared memory.
 ----------------------------------------------------------------------
 #p opt(VeryTight,CalcAll,Raman) Integral(Grid=UltraFine) PBEPBE/AUG-cc
 -pVQZ
 ----------------------------------------------------------------------
 1/7=1,10=4,14=-1,18=20,19=15,26=3,38=1/1,3;
 2/9=110,12=2,17=6,18=5,40=1/2;
 3/5=16,6=2,7=10,11=2,16=1,25=1,30=1,71=2,74=1009,75=-5/1,2,3;
 4//1;
 5/5=2,38=5/2;
 8/6=4,10=90,11=11/1;
 10/13=10,15=4/2;
 11/6=3,8=1,9=11,15=111,16=1/1,2,10;
 10/6=1/2;
 6/7=2,8=2,9=2,10=2,18=1,28=1/1;
 7/10=1,25=1/1,2,3,16;
 1/7=1,10=4,14=-1,18=20,19=15/3(3);
 2/9=110/2;
 7/8=1,9=1,25=1,44=-1/16;
 99//99;
 2/9=110/2;
 3/5=16,6=2,7=10,11=2,16=1,25=1,30=1,71=2,74=1009,75=-5/1,2,3;
 4/5=5,16=3/1;
 5/5=2,38=5/2;
 8/6=4,10=90,11=11/1;
 10/13=10,15=4/2;
 11/6=3,8=1,9=11,15=111,16=1/1,2,10;
 10/6=1/2;
 7/10=1,25=1/1,2,3,16;
 1/7=1,10=4,14=-1,18=20,19=15/3(-9);
 2/9=110/2;
 6/7=2,8=2,9=2,10=2,18=1,19=2,28=1/1;
 7/8=1,9=1,25=1,44=-1/16;
 99//99;
 Leave Link    1 at Thu Feb 26 00:57:37 2015, MaxMem= 1073741824 cpu:       0.3
 (Enter /apps/gaussian/g09_c01/g09/l101.exe)
 ----------------------------------------------
 Autjob by noodles.sh | Great noodly basis sets
 ----------------------------------------------
 Charge =  1 Multiplicity = 1
 Symbolic Z-Matrix:
 C                     0.        0.       -0.80446 
 H                    -0.09587  -1.03096  -1.1445 
 H                    -0.8449    0.59851  -1.1445 
 H                     0.94078   0.43245  -1.1445 
 N                     0.        0.        0.71256 
 H                     0.08865   0.95193   1.09076 
 H                    -0.86872  -0.39919   1.09076 
 H                     0.78007  -0.55274   1.09076 
 
 NAtoms=      8 NQM=        0 NQMF=       0 NMMI=      8 NMMIF=      0
                NMic=       0 NMicF=      0.
                    Isotopes and Nuclear Properties:
 (Nuclear quadrupole moments (NQMom) in fm**2, nuclear magnetic moments (NMagM)
  in nuclear magnetons)

  Atom         1           2           3           4           5           6           7           8
 IAtWgt=          12           1           1           1          14           1           1           1
 AtmWgt=  12.0000000   1.0078250   1.0078250   1.0078250  14.0030740   1.0078250   1.0078250   1.0078250
 NucSpn=           0           1           1           1           2           1           1           1
 AtZEff=   0.0000000   0.0000000   0.0000000   0.0000000   0.0000000   0.0000000   0.0000000   0.0000000
 NQMom=    0.0000000   0.0000000   0.0000000   0.0000000   2.0440000   0.0000000   0.0000000   0.0000000
 NMagM=    0.0000000   2.7928460   2.7928460   2.7928460   0.4037610   2.7928460   2.7928460   2.7928460
 Leave Link  101 at Thu Feb 26 00:57:37 2015, MaxMem= 1073741824 cpu:       1.0
 (Enter /apps/gaussian/g09_c01/g09/l103.exe)

 GradGradGradGradGradGradGradGradGradGradGradGradGradGradGradGradGradGrad
 Berny optimization.
 Initialization pass.
                           ----------------------------
                           !    Initial Parameters    !
                           ! (Angstroms and Degrees)  !
 --------------------------                            --------------------------
 ! Name  Definition              Value          Derivative Info.                !
 --------------------------------------------------------------------------------
 ! R1    R(1,2)                  1.0898         calculate D2E/DX2 analytically  !
 ! R2    R(1,3)                  1.0898         calculate D2E/DX2 analytically  !
 ! R3    R(1,4)                  1.0898         calculate D2E/DX2 analytically  !
 ! R4    R(1,5)                  1.517          calculate D2E/DX2 analytically  !
 ! R5    R(5,6)                  1.0281         calculate D2E/DX2 analytically  !
 ! R6    R(5,7)                  1.0281         calculate D2E/DX2 analytically  !
 ! R7    R(5,8)                  1.0281         calculate D2E/DX2 analytically  !
 ! A1    A(2,1,3)              110.7303         calculate D2E/DX2 analytically  !
 ! A2    A(2,1,4)              110.7304         calculate D2E/DX2 analytically  !
 ! A3    A(2,1,5)              108.1807         calculate D2E/DX2 analytically  !
 ! A4    A(3,1,4)              110.7303         calculate D2E/DX2 analytically  !
 ! A5    A(3,1,5)              108.1807         calculate D2E/DX2 analytically  !
 ! A6    A(4,1,5)              108.1807         calculate D2E/DX2 analytically  !
 ! A7    A(1,5,6)              111.5829         calculate D2E/DX2 analytically  !
 ! A8    A(1,5,7)              111.583          calculate D2E/DX2 analytically  !
 ! A9    A(1,5,8)              111.583          calculate D2E/DX2 analytically  !
 ! A10   A(6,5,7)              107.2794         calculate D2E/DX2 analytically  !
 ! A11   A(6,5,8)              107.2794         calculate D2E/DX2 analytically  !
 ! A12   A(7,5,8)              107.2794         calculate D2E/DX2 analytically  !
 ! D1    D(2,1,5,6)            179.9926         calculate D2E/DX2 analytically  !
 ! D2    D(2,1,5,7)            -60.0075         calculate D2E/DX2 analytically  !
 ! D3    D(2,1,5,8)             59.9926         calculate D2E/DX2 analytically  !
 ! D4    D(3,1,5,6)            -60.0075         calculate D2E/DX2 analytically  !
 ! D5    D(3,1,5,7)             59.9925         calculate D2E/DX2 analytically  !
 ! D6    D(3,1,5,8)            179.9926         calculate D2E/DX2 analytically  !
 ! D7    D(4,1,5,6)             59.9925         calculate D2E/DX2 analytically  !
 ! D8    D(4,1,5,7)            179.9925         calculate D2E/DX2 analytically  !
 ! D9    D(4,1,5,8)            -60.0075         calculate D2E/DX2 analytically  !
 --------------------------------------------------------------------------------
 Trust Radius=3.00D-01 FncErr=1.00D-07 GrdErr=1.00D-06
 Number of steps in this run=     38 maximum allowed number of steps=    100.
 GradGradGradGradGradGradGradGradGradGradGradGradGradGradGradGradGradGrad

 Leave Link  103 at Thu Feb 26 00:57:37 2015, MaxMem= 1073741824 cpu:       0.0
 (Enter /apps/gaussian/g09_c01/g09/l202.exe)
                          Input orientation:                          
 ---------------------------------------------------------------------
 Center     Atomic      Atomic             Coordinates (Angstroms)
 Number     Number       Type             X           Y           Z
 ---------------------------------------------------------------------
      1          6           0        0.000000    0.000000   -0.804455
      2          1           0       -0.095874   -1.030964   -1.144495
      3          1           0       -0.844904    0.598511   -1.144495
      4          1           0        0.940777    0.432453   -1.144495
      5          7           0        0.000000    0.000000    0.712562
      6          1           0        0.088649    0.951929    1.090759
      7          1           0       -0.868719   -0.399192    1.090759
      8          1           0        0.780070   -0.552736    1.090759
 ---------------------------------------------------------------------
                    Distance matrix (angstroms):
                    1          2          3          4          5
     1  C    0.000000
     2  H    1.089819   0.000000
     3  H    1.089819   1.793386   0.000000
     4  H    1.089818   1.793386   1.793386   0.000000
     5  N    1.517017   2.126203   2.126203   2.126203   0.000000
     6  H    2.122702   2.993706   2.448017   2.447925   1.028134
     7  H    2.122702   2.448017   2.447925   2.993705   1.028134
     8  H    2.122702   2.447926   2.993705   2.448016   1.028134
                    6          7          8
     6  H    0.000000
     7  H    1.655923   0.000000
     8  H    1.655923   1.655923   0.000000
 Stoichiometry    CH6N(1+)
 Framework group  C3[C3(CN),X(H6)]
 Deg. of freedom     6
 Full point group                 C3      NOp   3
 Largest Abelian subgroup         C1      NOp   1
 Largest concise Abelian subgroup C1      NOp   1
                         Standard orientation:                         
 ---------------------------------------------------------------------
 Center     Atomic      Atomic             Coordinates (Angstroms)
 Number     Number       Type             X           Y           Z
 ---------------------------------------------------------------------
      1          6           0        0.000000    0.000000   -0.804455
      2          1           0        1.030964   -0.095874   -1.144495
      3          1           0       -0.598511   -0.844904   -1.144495
      4          1           0       -0.432453    0.940778   -1.144495
      5          7           0        0.000000    0.000000    0.712562
      6          1           0       -0.951929    0.088649    1.090759
      7          1           0        0.399192   -0.868719    1.090759
      8          1           0        0.552737    0.780070    1.090759
 ---------------------------------------------------------------------
 Rotational constants (GHZ):     84.1605103     19.8694623     19.8694623
 Leave Link  202 at Thu Feb 26 00:57:37 2015, MaxMem= 1073741824 cpu:       0.0
 (Enter /apps/gaussian/g09_c01/g09/l301.exe)
 Standard basis: Aug-CC-pVQZ (5D, 7F)
 Ernie: Thresh=  0.10000D-02 Tol=  0.10000D-05 Strict=F.
 Ernie:  6 primitive shells out of 172 were deleted.
 There are   436 symmetry adapted basis functions of A   symmetry.
 Integral buffers will be    131072 words long.
 Raffenetti 2 integral format.
 Two-electron integral symmetry is turned on.
   436 basis functions,   590 primitive gaussians,   540 cartesian basis functions
     9 alpha electrons        9 beta electrons
       nuclear repulsion energy        47.5846100594 Hartrees.
 IExCor= 1009 DFT=T Ex=PBE Corr=PBE ExCW=0 ScaHFX=  0.000000
 ScaDFX=  1.000000  1.000000  1.000000  1.000000 ScalE2=  1.000000  1.000000
 IRadAn=      5 IRanWt=     -1 IRanGd=            0 ICorTp=0
 NAtoms=    8 NActive=    8 NUniq=    4 SFac= 4.00D+00 NAtFMM=   60 NAOKFM=F Big=F
 Leave Link  301 at Thu Feb 26 00:57:37 2015, MaxMem= 1073741824 cpu:       0.3
 (Enter /apps/gaussian/g09_c01/g09/l302.exe)
 NPDir=0 NMtPBC=     1 NCelOv=     1 NCel=       1 NClECP=     1 NCelD=      1
         NCelK=      1 NCelE2=     1 NClLst=     1 CellRange=     0.0.
 One-electron integrals computed using PRISM.
 NBasis=   436 RedAO= T  NBF=   436
 NBsUse=   436 1.00D-06 NBFU=   436
 Precomputing XC quadrature grid using
 IXCGrd= 2 IRadAn=           5 IRanWt=          -1 IRanGd=           0 AccXCQ= 0.00D+00.
 NRdTot=     687 NPtTot=      184910 NUsed=      189836 NTot=      189868
 NSgBfM=   540   540   540   540   540 NAtAll=     8     8.
 Leave Link  302 at Thu Feb 26 00:57:38 2015, MaxMem= 1073741824 cpu:       4.0
 (Enter /apps/gaussian/g09_c01/g09/l303.exe)
 DipDrv:  MaxL=1.
 Leave Link  303 at Thu Feb 26 00:57:38 2015, MaxMem= 1073741824 cpu:       0.5
 (Enter /apps/gaussian/g09_c01/g09/l401.exe)
 Harris functional with IExCor= 1009 diagonalized for initial guess.
 ExpMin= 2.36D-02 ExpMax= 4.58D+04 ExpMxC= 4.42D+02 IAcc=3 IRadAn=         5 AccDes= 0.00D+00
 HarFok:  IExCor= 1009 AccDes= 0.00D+00 IRadAn=         5 IDoV= 1
 ScaDFX=  1.000000  1.000000  1.000000  1.000000
 FoFCou: FMM=F IPFlag=           0 FMFlag=      100000 FMFlg1=           0
         NFxFlg=           0 DoJE=T BraDBF=F KetDBF=T FulRan=T
         Omega=  0.000000  0.000000  1.000000  0.000000  0.000000 ICntrl=     500 IOpCl=  0
         NMat0=    1 NMatS0=    1 NMatT0=    0 NMatD0=    1 NMtDS0=    0 NMtDT0=    0
         I1Cent=           4 NGrid=           0.
 Petite list used in FoFCou.
 DSYEVD returned Info=         873 IAlg= 4 N=   436 NDim=   436 NE2=     2461365 trying DSYEV.
 Harris En= -96.2358530816392    
 Initial guess orbital symmetries:
       Occupied  (A) (A) (A) (A) (E) (E) (A) (E) (E)
       Virtual   (A) (A) (E) (E) (A) (E) (E) (A) (E) (E) (A) (E)
                 (E) (A) (E) (E) (E) (E) (A) (E) (E) (A) (E) (E)
                 (A) (A) (E) (E) (A) (A) (E) (E) (E) (E) (A) (E)
                 (E) (A) (A) (E) (E) (A) (E) (E) (E) (E) (A) (E)
                 (E) (A) (E) (E) (A) (A) (E) (E) (A) (E) (E) (A)
                 (E) (E) (E) (E) (A) (A) (A) (E) (E) (A) (E) (E)
                 (E) (E) (A) (E) (E) (A) (E) (E) (E) (E) (A) (E)
                 (E) (A) (E) (E) (A) (A) (E) (E) (A) (E) (E) (E)
                 (E) (A) (A) (E) (E) (E) (E) (A) (E) (E) (A) (A)
                 (E) (E) (A) (E) (E) (A) (E) (E) (A) (E) (E) (A)
                 (E) (E) (A) (E) (E) (A) (A) (E) (E) (A) (E) (E)
                 (A) (E) (E) (E) (E) (E) (E) (A) (E) (E) (A) (E)
                 (E) (A) (A) (A) (E) (E) (E) (E) (A) (E) (E) (A)
                 (E) (E) (A) (A) (E) (E) (E) (E) (A) (A) (E) (E)
                 (A) (E) (E) (A) (A) (E) (E) (E) (E) (A) (E) (E)
                 (A) (E) (E) (A) (E) (E) (E) (E) (A) (E) (E) (A)
                 (E) (E) (A) (A) (E) (E) (A) (E) (E) (A) (E) (E)
                 (A) (E) (E) (A) (A) (E) (E) (A) (E) (E) (A) (E)
                 (E) (A) (E) (E) (E) (E) (A) (E) (E) (A) (E) (E)
                 (A) (E) (E) (A) (A) (E) (E) (A) (E) (E) (A) (E)
                 (E) (A) (A) (E) (E) (E) (E) (A) (E) (E) (A) (E)
                 (E) (E) (E) (A) (A) (E) (E) (E) (E) (A) (E) (E)
                 (A) (E) (E) (A) (E) (E) (A) (A) (E) (E) (E) (E)
                 (A) (E) (E) (A) (A) (E) (E) (A) (E) (E) (A) (E)
                 (E) (A) (A) (E) (E) (A) (E) (E) (E) (E) (A) (A)
                 (E) (E) (E) (E) (E) (E) (A) (A) (A) (A) (E) (E)
                 (E) (E) (A) (E) (E) (E) (E) (A) (A) (A) (E) (E)
                 (E) (E) (A) (E) (E) (A) (E) (E) (A) (E) (E) (E)
                 (E) (A) (A) (E) (E) (E) (E) (E) (E) (A) (E) (E)
                 (A) (A) (E) (E) (A) (A) (A) (A) (E) (E) (E) (E)
                 (A) (E) (E) (E) (E) (E) (E) (E) (E) (A) (A) (A)
                 (E) (E) (E) (E) (E) (E) (A) (A) (E) (E) (A) (E)
                 (E) (A) (A) (E) (E) (E) (E) (E) (E) (E) (E) (A)
                 (A) (A) (A) (E) (E) (E) (E) (A) (E) (E) (A) (E)
                 (E) (A) (A) (E) (E) (A) (E) (E) (A) (E) (E) (E)
                 (E) (A) (E) (E) (A) (A) (A)
 The electronic state of the initial guess is 1-A.
 Leave Link  401 at Thu Feb 26 00:57:40 2015, MaxMem= 1073741824 cpu:      15.9
 (Enter /apps/gaussian/g09_c01/g09/l502.exe)
 Closed shell SCF:
 Requested convergence on RMS density matrix=1.00D-08 within 128 cycles.
 Requested convergence on MAX density matrix=1.00D-06.
 Requested convergence on             energy=1.00D-06.
 No special actions if energy rises.
 Using DIIS extrapolation, IDIIS=  1040.
 Integral symmetry usage will be decided dynamically.
       189751 words used for storage of precomputed grid.
 IEnd=     1091081 IEndB=     1091081 NGot=  1073741824 MDV=  1072959524
 LenX=  1072959524 LenY=  1072667384
 Fock matrices will be formed incrementally for  20 cycles.

 Cycle   1  Pass 1  IDiag  1:
 FoFCou: FMM=F IPFlag=           0 FMFlag=      100000 FMFlg1=           0
         NFxFlg=           0 DoJE=T BraDBF=F KetDBF=F FulRan=T
         Omega=  0.000000  0.000000  1.000000  0.000000  0.000000 ICntrl=     500 IOpCl=  0
         NMat0=    1 NMatS0=    1 NMatT0=    0 NMatD0=    1 NMtDS0=    0 NMtDT0=    0
         I1Cent=           0 NGrid=           0.
 Petite list used in FoFCou.
 E= -96.0925375390571    
 DIIS: error= 1.53D-02 at cycle   1 NSaved=   1.
 NSaved= 1 IEnMin= 1 EnMin= -96.0925375390571     IErMin= 1 ErrMin= 1.53D-02
 ErrMax= 1.53D-02 EMaxC= 1.00D-01 BMatC= 3.98D-02 BMatP= 3.98D-02
 IDIUse=3 WtCom= 8.47D-01 WtEn= 1.53D-01
 Coeff-Com:  0.100D+01
 Coeff-En:   0.100D+01
 Coeff:      0.100D+01
 Gap=     0.304 Goal=   None    Shift=    0.000
 DSYEVD returned Info=         873 IAlg= 4 N=   436 NDim=   436 NE2=     2460245 trying DSYEV.
 GapD=    0.304 DampG=1.000 DampE=0.500 DampFc=0.5000 IDamp=-1.
 Damping current iteration by 5.00D-01
 RMSDP=7.54D-04 MaxDP=7.09D-02              OVMax= 1.24D-01

 Cycle   2  Pass 1  IDiag  1:
 RMSU=  2.65D-04    CP:  9.85D-01
 E= -96.1067468520090     Delta-E=       -0.014209312952 Rises=F Damp=T
 DIIS: error= 3.59D-03 at cycle   2 NSaved=   2.
 NSaved= 2 IEnMin= 2 EnMin= -96.1067468520090     IErMin= 2 ErrMin= 3.59D-03
 ErrMax= 3.59D-03 EMaxC= 1.00D-01 BMatC= 3.05D-03 BMatP= 3.98D-02
 IDIUse=3 WtCom= 9.64D-01 WtEn= 3.59D-02
 Coeff-Com:  0.727D-01 0.927D+00
 Coeff-En:   0.186D+00 0.814D+00
 Coeff:      0.768D-01 0.923D+00
 Gap=     0.345 Goal=   None    Shift=    0.000
 DSYEVD returned Info=       96139 IAlg= 4 N=   436 NDim=   436 NE2=     2460245 trying DSYEV.
 RMSDP=2.88D-04 MaxDP=3.52D-02 DE=-1.42D-02 OVMax= 7.09D-02

 Cycle   3  Pass 1  IDiag  1:
 RMSU=  1.70D-04    CP:  1.01D+00  1.39D+00
 E= -96.1261142248363     Delta-E=       -0.019367372827 Rises=F Damp=F
 DIIS: error= 3.07D-03 at cycle   3 NSaved=   3.
 NSaved= 3 IEnMin= 3 EnMin= -96.1261142248363     IErMin= 3 ErrMin= 3.07D-03
 ErrMax= 3.07D-03 EMaxC= 1.00D-01 BMatC= 1.08D-03 BMatP= 3.05D-03
 IDIUse=3 WtCom= 9.69D-01 WtEn= 3.07D-02
 Coeff-Com: -0.464D-01 0.350D+00 0.696D+00
 Coeff-En:   0.000D+00 0.000D+00 0.100D+01
 Coeff:     -0.450D-01 0.339D+00 0.706D+00
 Gap=     0.346 Goal=   None    Shift=    0.000
 DSYEVD returned Info=         873 IAlg= 4 N=   436 NDim=   436 NE2=     2460245 trying DSYEV.
 RMSDP=4.97D-05 MaxDP=4.35D-03 DE=-1.94D-02 OVMax= 1.14D-02

 Cycle   4  Pass 1  IDiag  1:
 RMSU=  2.51D-05    CP:  1.00D+00  1.43D+00  8.80D-01
 E= -96.1270770289100     Delta-E=       -0.000962804074 Rises=F Damp=F
 DIIS: error= 8.07D-04 at cycle   4 NSaved=   4.
 NSaved= 4 IEnMin= 4 EnMin= -96.1270770289100     IErMin= 4 ErrMin= 8.07D-04
 ErrMax= 8.07D-04 EMaxC= 1.00D-01 BMatC= 5.70D-05 BMatP= 1.08D-03
 IDIUse=3 WtCom= 9.92D-01 WtEn= 8.07D-03
 Coeff-Com: -0.192D-01 0.739D-01 0.257D+00 0.688D+00
 Coeff-En:   0.000D+00 0.000D+00 0.000D+00 0.100D+01
 Coeff:     -0.191D-01 0.733D-01 0.255D+00 0.691D+00
 Gap=     0.345 Goal=   None    Shift=    0.000
 DSYEVD returned Info=         873 IAlg= 4 N=   436 NDim=   436 NE2=     2460245 trying DSYEV.
 RMSDP=1.10D-05 MaxDP=1.02D-03 DE=-9.63D-04 OVMax= 3.53D-03

 Cycle   5  Pass 1  IDiag  1:
 RMSU=  4.80D-06    CP:  1.00D+00  1.44D+00  9.01D-01  8.44D-01
 E= -96.1271203733843     Delta-E=       -0.000043344474 Rises=F Damp=F
 DIIS: error= 3.88D-04 at cycle   5 NSaved=   5.
 NSaved= 5 IEnMin= 5 EnMin= -96.1271203733843     IErMin= 5 ErrMin= 3.88D-04
 ErrMax= 3.88D-04 EMaxC= 1.00D-01 BMatC= 1.48D-05 BMatP= 5.70D-05
 IDIUse=3 WtCom= 9.96D-01 WtEn= 3.88D-03
 Coeff-Com: -0.110D-01 0.318D-01 0.136D+00 0.428D+00 0.414D+00
 Coeff-En:   0.000D+00 0.000D+00 0.000D+00 0.586D-01 0.941D+00
 Coeff:     -0.109D-01 0.317D-01 0.136D+00 0.427D+00 0.417D+00
 Gap=     0.345 Goal=   None    Shift=    0.000
 DSYEVD returned Info=         873 IAlg= 4 N=   436 NDim=   436 NE2=     2460245 trying DSYEV.
 RMSDP=3.83D-06 MaxDP=3.15D-04 DE=-4.33D-05 OVMax= 1.04D-03

 Cycle   6  Pass 1  IDiag  1:
 RMSU=  1.41D-06    CP:  1.00D+00  1.44D+00  9.03D-01  8.40D-01  5.26D-01
 E= -96.1271314200914     Delta-E=       -0.000011046707 Rises=F Damp=F
 DIIS: error= 3.31D-05 at cycle   6 NSaved=   6.
 NSaved= 6 IEnMin= 6 EnMin= -96.1271314200914     IErMin= 6 ErrMin= 3.31D-05
 ErrMax= 3.31D-05 EMaxC= 1.00D-01 BMatC= 9.81D-08 BMatP= 1.48D-05
 IDIUse=1 WtCom= 1.00D+00 WtEn= 0.00D+00
 Coeff-Com: -0.145D-02 0.380D-02 0.184D-01 0.601D-01 0.114D+00 0.805D+00
 Coeff:     -0.145D-02 0.380D-02 0.184D-01 0.601D-01 0.114D+00 0.805D+00
 Gap=     0.345 Goal=   None    Shift=    0.000
 DSYEVD returned Info=         873 IAlg= 4 N=   436 NDim=   436 NE2=     2460245 trying DSYEV.
 RMSDP=5.40D-07 MaxDP=6.01D-05 DE=-1.10D-05 OVMax= 1.24D-04

 Cycle   7  Pass 1  IDiag  1:
 RMSU=  2.45D-07    CP:  1.00D+00  1.44D+00  9.04D-01  8.38D-01  5.53D-01
                    CP:  9.35D-01
 E= -96.1271315066146     Delta-E=       -0.000000086523 Rises=F Damp=F
 DIIS: error= 5.09D-06 at cycle   7 NSaved=   7.
 NSaved= 7 IEnMin= 7 EnMin= -96.1271315066146     IErMin= 7 ErrMin= 5.09D-06
 ErrMax= 5.09D-06 EMaxC= 1.00D-01 BMatC= 1.13D-09 BMatP= 9.81D-08
 IDIUse=1 WtCom= 1.00D+00 WtEn= 0.00D+00
 Coeff-Com: -0.287D-04 0.481D-04 0.764D-03 0.239D-02 0.106D-01 0.158D+00
 Coeff-Com:  0.829D+00
 Coeff:     -0.287D-04 0.481D-04 0.764D-03 0.239D-02 0.106D-01 0.158D+00
 Coeff:      0.829D+00
 Gap=     0.345 Goal=   None    Shift=    0.000
 DSYEVD returned Info=         873 IAlg= 4 N=   436 NDim=   436 NE2=     2460245 trying DSYEV.
 RMSDP=8.42D-08 MaxDP=1.00D-05 DE=-8.65D-08 OVMax= 1.74D-05

 Cycle   8  Pass 1  IDiag  1:
 RMSU=  3.47D-08    CP:  1.00D+00  1.44D+00  9.04D-01  8.39D-01  5.54D-01
                    CP:  9.50D-01  9.09D-01
 E= -96.1271315079758     Delta-E=       -0.000000001361 Rises=F Damp=F
 DIIS: error= 6.08D-07 at cycle   8 NSaved=   8.
 NSaved= 8 IEnMin= 8 EnMin= -96.1271315079758     IErMin= 8 ErrMin= 6.08D-07
 ErrMax= 6.08D-07 EMaxC= 1.00D-01 BMatC= 4.06D-11 BMatP= 1.13D-09
 IDIUse=1 WtCom= 1.00D+00 WtEn= 0.00D+00
 Coeff-Com:  0.293D-04-0.954D-04-0.285D-03-0.935D-03 0.234D-03 0.271D-01
 Coeff-Com:  0.230D+00 0.744D+00
 Coeff:      0.293D-04-0.954D-04-0.285D-03-0.935D-03 0.234D-03 0.271D-01
 Coeff:      0.230D+00 0.744D+00
 Gap=     0.345 Goal=   None    Shift=    0.000
 DSYEVD returned Info=         873 IAlg= 4 N=   436 NDim=   436 NE2=     2460245 trying DSYEV.
 RMSDP=9.05D-09 MaxDP=6.97D-07 DE=-1.36D-09 OVMax= 1.98D-06

 SCF Done:  E(RPBE-PBE) =  -96.1271315080     A.U. after    8 cycles
             Convg  =    0.9047D-08             -V/T =  2.0051
 KE= 9.564342535033D+01 PE=-3.133115524789D+02 EE= 7.395638556116D+01
 Leave Link  502 at Thu Feb 26 00:58:41 2015, MaxMem= 1073741824 cpu:     491.8
 (Enter /apps/gaussian/g09_c01/g09/l801.exe)
 Range of M.O.s used for correlation:     1   436
 NBasis=   436 NAE=     9 NBE=     9 NFC=     0 NFV=     0
 NROrb=    436 NOA=     9 NOB=     9 NVA=   427 NVB=   427

 **** Warning!!: The largest alpha MO coefficient is  0.14083604D+03

 Leave Link  801 at Thu Feb 26 00:58:41 2015, MaxMem= 1073741824 cpu:       0.1
 (Enter /apps/gaussian/g09_c01/g09/l1002.exe)
 Minotr:  Closed shell wavefunction.
          Direct CPHF calculation.
          Differentiating once with respect to electric field.
                with respect to dipole field.
          Electric field/nuclear overlap derivatives assumed to be zero.
          Using symmetry in CPHF.
          Requested convergence is 1.0D-08 RMS, and 1.0D-07 maximum.
          Secondary convergence is 1.0D-12 RMS, and 1.0D-12 maximum.
          NewPWx=F KeepS1=T KeepF1=T KeepIn=T MapXYZ=F SortEE=F KeepMc=T.
          MDV=    1073741756 using IRadAn=       1.
 Generate precomputed XC quadrature information.
          Solving linear equations simultaneously, MaxMat=       0.
          There are     3 degrees of freedom in the 1st order CPHF.  IDoFFX=0.
      3 vectors produced by pass  0 Test12= 1.28D-13 3.33D-08 XBig12= 1.46D+01 1.85D+00.
 AX will form     3 AO Fock derivatives at one time.
 FoFCou: FMM=F IPFlag=           0 FMFlag=      100000 FMFlg1=           0
         NFxFlg=           0 DoJE=T BraDBF=F KetDBF=F FulRan=T
         Omega=  0.000000  0.000000  1.000000  0.000000  0.000000 ICntrl=     500 IOpCl=  0
         NMat0=    3 NMatS0=    3 NMatT0=    0 NMatD0=    3 NMtDS0=    0 NMtDT0=    0
         I1Cent=           0 NGrid=           0.
 Symmetry not used in FoFCou.
      3 vectors produced by pass  1 Test12= 1.28D-13 3.33D-08 XBig12= 1.35D+00 5.01D-01.
      3 vectors produced by pass  2 Test12= 1.28D-13 3.33D-08 XBig12= 4.62D-01 2.02D-01.
      3 vectors produced by pass  3 Test12= 1.28D-13 3.33D-08 XBig12= 3.46D-02 3.88D-02.
      3 vectors produced by pass  4 Test12= 1.28D-13 3.33D-08 XBig12= 1.11D-02 2.31D-02.
      3 vectors produced by pass  5 Test12= 1.28D-13 3.33D-08 XBig12= 6.30D-04 6.52D-03.
      3 vectors produced by pass  6 Test12= 1.28D-13 3.33D-08 XBig12= 1.79D-05 1.11D-03.
      3 vectors produced by pass  7 Test12= 1.28D-13 3.33D-08 XBig12= 3.79D-07 1.10D-04.
      3 vectors produced by pass  8 Test12= 1.28D-13 3.33D-08 XBig12= 1.55D-09 6.62D-06.
      1 vectors produced by pass  9 Test12= 1.28D-13 3.33D-08 XBig12= 8.15D-12 4.38D-07.
 Inverted reduced A of dimension    28 with in-core refinement.
 End of Minotr Frequency-dependent properties file   721 does not exist.
 End of Minotr Frequency-dependent properties file   722 does not exist.
 Leave Link 1002 at Thu Feb 26 01:02:57 2015, MaxMem= 1073741824 cpu:    2042.9
 (Enter /apps/gaussian/g09_c01/g09/l1101.exe)
 Using compressed storage, NAtomX=     8.
 Will process   9 centers per pass.
 Leave Link 1101 at Thu Feb 26 01:02:58 2015, MaxMem= 1073741824 cpu:       4.3
 (Enter /apps/gaussian/g09_c01/g09/l1102.exe)
 Symmetrizing basis deriv contribution to polar:
 IMax=3 JMax=2 DiffMx= 0.00D+00
 Leave Link 1102 at Thu Feb 26 01:02:58 2015, MaxMem= 1073741824 cpu:       0.5
 (Enter /apps/gaussian/g09_c01/g09/l1110.exe)
 Forming Gx(P) for the SCF density, NAtomX=     8.
 Integral derivatives from FoFDir/FoFCou, PRISM(SPDF).
 Do as many integral derivatives as possible in FoFDir.
 G2DrvN: MDV=    1073741656.
 G2DrvN: will do     9 centers at a time, making    1 passes doing MaxLOS=4.
 Calling FoFCou, ICntrl=  3507 FMM=F I1Cent=   0 AccDes= 0.00D+00.
 FoFCou: FMM=F IPFlag=           0 FMFlag=      100000 FMFlg1=           0
         NFxFlg=           0 DoJE=F BraDBF=F KetDBF=F FulRan=T
         Omega=  0.000000  0.000000  1.000000  0.000000  0.000000 ICntrl=    3507 IOpCl=  0
         NMat0=    1 NMatS0=    1 NMatT0=    0 NMatD0=    4 NMtDS0=    3 NMtDT0=    0
         I1Cent=           0 NGrid=           0.
 Petite list used in FoFCou.
 FoFDir/FoFCou used for L=0 through L=4.
 End of G2Drv Frequency-dependent properties file   721 does not exist.
 End of G2Drv Frequency-dependent properties file   722 does not exist.
 Leave Link 1110 at Thu Feb 26 01:07:12 2015, MaxMem= 1073741824 cpu:    2022.3
 (Enter /apps/gaussian/g09_c01/g09/l1002.exe)
 Minotr:  Closed shell wavefunction.
          IDoAtm=11111111
          Direct CPHF calculation.
          Differentiating once with respect to electric field.
                with respect to dipole field.
          Differentiating once with respect to nuclear coordinates.
          Using symmetry in CPHF.
          Requested convergence is 1.0D-08 RMS, and 1.0D-07 maximum.
          Secondary convergence is 1.0D-12 RMS, and 1.0D-12 maximum.
          NewPWx=T KeepS1=F KeepF1=F KeepIn=T MapXYZ=F SortEE=F KeepMc=T.
          MDV=    1073741740 using IRadAn=       1.
 Generate precomputed XC quadrature information.
          Solving linear equations simultaneously, MaxMat=       0.
 FoFCou: FMM=F IPFlag=           0 FMFlag=      100000 FMFlg1=           0
         NFxFlg=           0 DoJE=F BraDBF=F KetDBF=F FulRan=T
         Omega=  0.000000  0.000000  1.000000  0.000000  0.000000 ICntrl=     500 IOpCl=  0
         NMat0=   15 NMatS0=   15 NMatT0=    0 NMatD0=   15 NMtDS0=    0 NMtDT0=    0
         I1Cent=           0 NGrid=           0.
 Integrals replicated using symmetry in FoFCou.
          There are    15 degrees of freedom in the 1st order CPHF.  IDoFFX=4.
 Will reuse    3 saved solutions.
     12 vectors produced by pass  0 Test12= 2.56D-14 6.67D-09 XBig12= 8.67D-02 1.12D-01.
 AX will form    12 AO Fock derivatives at one time.
     12 vectors produced by pass  1 Test12= 2.56D-14 6.67D-09 XBig12= 1.83D-02 3.94D-02.
     12 vectors produced by pass  2 Test12= 2.56D-14 6.67D-09 XBig12= 6.66D-05 2.38D-03.
     12 vectors produced by pass  3 Test12= 2.56D-14 6.67D-09 XBig12= 3.16D-07 1.42D-04.
     12 vectors produced by pass  4 Test12= 2.56D-14 6.67D-09 XBig12= 4.91D-10 3.32D-06.
     10 vectors produced by pass  5 Test12= 2.56D-14 6.67D-09 XBig12= 4.38D-13 8.56D-08.
 Inverted reduced A of dimension    70 with in-core refinement.
 FullF1:  Do perturbations    1 to    15.
 Isotropic polarizability for W=    0.000000       20.83 Bohr**3.
 FullF1:  Do perturbations    1 to     6.
 End of Minotr Frequency-dependent properties file   721 does not exist.
 End of Minotr Frequency-dependent properties file   722 does not exist.
 Leave Link 1002 at Thu Feb 26 01:24:46 2015, MaxMem= 1073741824 cpu:    8409.8
 (Enter /apps/gaussian/g09_c01/g09/l601.exe)
 Copying SCF densities to generalized density rwf, IOpCl= 0 IROHF=0.

 **********************************************************************

            Population analysis using the SCF density.

 **********************************************************************

 Orbital symmetries:
       Occupied  (A) (A) (A) (A) (E) (E) (A) (E) (E)
       Virtual   (A) (E) (E) (A) (E) (E) (A) (A) (E) (E) (E) (E)
                 (A) (A) (E) (E) (E) (E) (A) (E) (E) (A) (A) (A)
                 (E) (E) (A) (E) (E) (E) (E) (A) (E) (E) (A) (E)
                 (E) (A) (A) (E) (E) (A) (E) (E) (E) (E) (A) (E)
                 (E) (A) (A) (E) (E) (A) (A) (E) (E) (E) (E) (E)
                 (E) (A) (E) (E) (A) (A) (E) (E) (A) (A) (E) (E)
                 (A) (E) (E) (E) (E) (A) (E) (E) (E) (E) (A) (E)
                 (E) (A) (E) (E) (A) (E) (E) (A) (A) (E) (E) (E)
                 (E) (A) (A) (E) (E) (E) (E) (A) (E) (E) (A) (A)
                 (E) (E) (A) (E) (E) (A) (A) (E) (E) (E) (E) (E)
                 (E) (A) (A) (E) (E) (A) (A) (A) (E) (E) (E) (E)
                 (A) (E) (E) (E) (E) (A) (E) (E) (E) (E) (A) (A)
                 (E) (E) (A) (A) (E) (E) (E) (E) (A) (E) (E) (E)
                 (E) (A) (A) (A) (E) (E) (A) (E) (E) (E) (E) (A)
                 (E) (E) (A) (A) (E) (E) (A) (E) (E) (A) (E) (E)
                 (A) (E) (E) (A) (E) (E) (E) (E) (A) (E) (E) (A)
                 (A) (E) (E) (A) (E) (E) (A) (E) (E) (A) (A) (E)
                 (E) (E) (E) (A) (E) (E) (A) (E) (E) (A) (A) (E)
                 (E) (A) (E) (E) (E) (E) (A) (E) (E) (A) (E) (E)
                 (E) (E) (A) (A) (A) (E) (E) (A) (A) (E) (E) (E)
                 (E) (A) (A) (E) (E) (E) (E) (A) (E) (E) (A) (E)
                 (E) (E) (E) (A) (A) (E) (E) (E) (E) (A) (E) (E)
                 (A) (E) (E) (E) (E) (A) (A) (E) (E) (A) (E) (E)
                 (A) (E) (E) (A) (A) (E) (E) (A) (E) (E) (A) (E)
                 (E) (A) (A) (E) (E) (A) (A) (E) (E) (E) (E) (A)
                 (E) (E) (E) (E) (E) (E) (A) (A) (A) (E) (E) (A)
                 (E) (E) (A) (E) (E) (A) (E) (E) (A) (A) (E) (E)
                 (E) (E) (A) (E) (E) (E) (E) (A) (A) (E) (E) (E)
                 (E) (A) (A) (E) (E) (E) (E) (E) (E) (A) (E) (E)
                 (A) (A) (A) (E) (E) (A) (A) (E) (E) (A) (E) (E)
                 (A) (E) (E) (E) (E) (E) (E) (E) (E) (A) (A) (A)
                 (E) (E) (E) (E) (E) (E) (A) (A) (E) (E) (A) (E)
                 (E) (A) (A) (E) (E) (E) (E) (E) (E) (E) (E) (A)
                 (A) (A) (A) (E) (E) (E) (E) (A) (A) (E) (E) (E)
                 (E) (A) (A) (E) (E) (A) (E) (E) (A) (E) (E) (E)
                 (E) (A) (E) (E) (A) (A) (A)
 The electronic state is 1-A.
 Alpha  occ. eigenvalues --  -14.32974 -10.14540  -1.14090  -0.87010  -0.75212
 Alpha  occ. eigenvalues --   -0.75212  -0.66144  -0.58045  -0.58045
 Alpha virt. eigenvalues --   -0.23570  -0.16852  -0.16852  -0.16834  -0.12653
 Alpha virt. eigenvalues --   -0.12653  -0.11841  -0.09555  -0.08198  -0.08198
 Alpha virt. eigenvalues --   -0.07091  -0.07091  -0.06065  -0.03956  -0.03535
 Alpha virt. eigenvalues --   -0.03535  -0.02277  -0.02277  -0.00798   0.00429
 Alpha virt. eigenvalues --    0.00429   0.03230   0.05069   0.05319   0.05354
 Alpha virt. eigenvalues --    0.05354   0.07949   0.08231   0.08231   0.10277
 Alpha virt. eigenvalues --    0.10277   0.10645   0.11749   0.11749   0.12678
 Alpha virt. eigenvalues --    0.12824   0.12824   0.13200   0.13687   0.15506
 Alpha virt. eigenvalues --    0.15506   0.18259   0.19358   0.19358   0.20451
 Alpha virt. eigenvalues --    0.20451   0.22855   0.25916   0.25916   0.28721
 Alpha virt. eigenvalues --    0.30336   0.31261   0.31261   0.34218   0.34524
 Alpha virt. eigenvalues --    0.35165   0.35165   0.38569   0.38569   0.41013
 Alpha virt. eigenvalues --    0.41013   0.41862   0.43400   0.43400   0.43935
 Alpha virt. eigenvalues --    0.44610   0.45438   0.45438   0.45560   0.48510
 Alpha virt. eigenvalues --    0.49796   0.49796   0.52330   0.53022   0.53022
 Alpha virt. eigenvalues --    0.56139   0.56139   0.57834   0.60088   0.60088
 Alpha virt. eigenvalues --    0.61110   0.61110   0.63218   0.64030   0.64030
 Alpha virt. eigenvalues --    0.66010   0.69059   0.69059   0.70312   0.70974
 Alpha virt. eigenvalues --    0.70974   0.71111   0.74095   0.78810   0.78810
 Alpha virt. eigenvalues --    0.82974   0.82974   0.83673   0.83786   0.84304
 Alpha virt. eigenvalues --    0.84304   0.85427   0.85427   0.88908   0.96215
 Alpha virt. eigenvalues --    0.96215   0.97263   0.97667   0.99235   0.99235
 Alpha virt. eigenvalues --    0.99787   1.08054   1.08054   1.08476   1.10957
 Alpha virt. eigenvalues --    1.11942   1.11942   1.12707   1.12707   1.15282
 Alpha virt. eigenvalues --    1.15282   1.15387   1.19125   1.22596   1.22596
 Alpha virt. eigenvalues --    1.25113   1.29537   1.32080   1.32656   1.32656
 Alpha virt. eigenvalues --    1.34348   1.34348   1.41314   1.42539   1.42539
 Alpha virt. eigenvalues --    1.46275   1.46275   1.52770   1.52844   1.52844
 Alpha virt. eigenvalues --    1.52923   1.52923   1.58063   1.59946   1.60601
 Alpha virt. eigenvalues --    1.60601   1.62539   1.63472   1.65441   1.65441
 Alpha virt. eigenvalues --    1.69277   1.69277   1.71321   1.72044   1.72044
 Alpha virt. eigenvalues --    1.73630   1.73630   1.74310   1.74566   1.77419
 Alpha virt. eigenvalues --    1.79041   1.79041   1.80548   1.81953   1.81953
 Alpha virt. eigenvalues --    1.83219   1.83219   1.84853   1.88909   1.88909
 Alpha virt. eigenvalues --    1.89356   1.93817   2.02287   2.02287   2.03121
 Alpha virt. eigenvalues --    2.03636   2.03636   2.08255   2.11888   2.11888
 Alpha virt. eigenvalues --    2.14454   2.17465   2.17465   2.22352   2.25262
 Alpha virt. eigenvalues --    2.25262   2.28478   2.28478   2.29289   2.30344
 Alpha virt. eigenvalues --    2.30344   2.33150   2.36729   2.37051   2.37051
 Alpha virt. eigenvalues --    2.41903   2.43146   2.43146   2.43681   2.48056
 Alpha virt. eigenvalues --    2.48056   2.54060   2.58657   2.58715   2.58715
 Alpha virt. eigenvalues --    2.59614   2.59614   2.63950   2.67614   2.67614
 Alpha virt. eigenvalues --    2.67842   2.74128   2.74128   2.75102   2.77162
 Alpha virt. eigenvalues --    2.79184   2.79184   2.87957   2.93759   2.93759
 Alpha virt. eigenvalues --    3.01152   3.01152   3.06006   3.07266   3.07266
 Alpha virt. eigenvalues --    3.15740   3.16641   3.16641   3.18566   3.18566
 Alpha virt. eigenvalues --    3.20232   3.26712   3.32615   3.34013   3.34013
 Alpha virt. eigenvalues --    3.44688   3.46149   3.47498   3.47498   3.50161
 Alpha virt. eigenvalues --    3.50161   3.54232   3.57566   3.60472   3.60472
 Alpha virt. eigenvalues --    3.68375   3.68375   3.70814   3.71789   3.71789
 Alpha virt. eigenvalues --    3.76151   3.79757   3.79757   3.88877   3.88877
 Alpha virt. eigenvalues --    3.92255   4.00595   4.01736   4.01736   4.10011
 Alpha virt. eigenvalues --    4.10011   4.18088   4.22726   4.22726   4.25259
 Alpha virt. eigenvalues --    4.26474   4.26474   4.39538   4.39538   4.41932
 Alpha virt. eigenvalues --    4.54555   4.54850   4.54850   4.54878   4.73600
 Alpha virt. eigenvalues --    4.73600   4.73897   4.87532   4.87532   5.01719
 Alpha virt. eigenvalues --    5.23364   5.60004   5.60004   5.61376   5.81532
 Alpha virt. eigenvalues --    5.81532   5.82605   6.09288   6.09288   6.12982
 Alpha virt. eigenvalues --    6.16078   6.21276   6.21276   6.24068   6.26713
 Alpha virt. eigenvalues --    6.27411   6.27411   6.30494   6.30494   6.38369
 Alpha virt. eigenvalues --    6.40791   6.40791   6.52887   6.52887   6.55783
 Alpha virt. eigenvalues --    6.55783   6.60584   6.66262   6.73018   6.75936
 Alpha virt. eigenvalues --    6.75936   6.79376   6.82998   6.82998   6.89465
 Alpha virt. eigenvalues --    6.94279   6.94279   7.01529   7.07622   7.07622
 Alpha virt. eigenvalues --    7.09068   7.10809   7.20428   7.20428   7.28599
 Alpha virt. eigenvalues --    7.28599   7.35880   7.45706   7.45706   7.49135
 Alpha virt. eigenvalues --    7.49135   7.51320   7.57456   7.59526   7.59526
 Alpha virt. eigenvalues --    7.70976   7.70976   7.79424   7.85888   7.88244
 Alpha virt. eigenvalues --    7.88244   7.93916   7.93916   8.00142   8.00142
 Alpha virt. eigenvalues --    8.04234   8.14574   8.14574   8.17386   8.26158
 Alpha virt. eigenvalues --    8.27125   8.28301   8.28301   8.33921   8.36650
 Alpha virt. eigenvalues --    8.43210   8.43210   8.43349   8.49725   8.49725
 Alpha virt. eigenvalues --    8.55282   8.58793   8.58793   8.66725   8.66725
 Alpha virt. eigenvalues --    8.73841   8.73841   8.76596   8.76596   8.83334
 Alpha virt. eigenvalues --    8.86282   8.89795   8.95178   8.95178   8.97379
 Alpha virt. eigenvalues --    8.97379   9.03441   9.03441   9.18488   9.22990
 Alpha virt. eigenvalues --    9.24624   9.24624   9.26630   9.36021   9.36021
 Alpha virt. eigenvalues --    9.39068   9.40438   9.62136   9.62136   9.65515
 Alpha virt. eigenvalues --    9.65515   9.73375   9.73375   9.75378   9.75378
 Alpha virt. eigenvalues --    9.90473   9.98841  10.10074  10.10277  10.13250
 Alpha virt. eigenvalues --   10.13250  10.24044  10.24044  10.24988  10.39757
 Alpha virt. eigenvalues --   10.41222  10.41222  10.67462  10.67462  10.80906
 Alpha virt. eigenvalues --   11.06997  11.22474  11.22474  11.52923  11.58464
 Alpha virt. eigenvalues --   11.58464  12.09787  12.27898  12.27898  12.46164
 Alpha virt. eigenvalues --   12.46164  12.87843  14.10403  14.10403  14.48127
 Alpha virt. eigenvalues --   27.54197  36.35605
          Condensed to atoms (all electrons):
              1          2          3          4          5          6
     1  C    5.618170   0.360724   0.360724   0.360724   0.243681  -0.005209
     2  H    0.360724   0.268059   0.013610   0.013610  -0.022071  -0.000053
     3  H    0.360724   0.013610   0.268059   0.013610  -0.022071  -0.000407
     4  H    0.360724   0.013610   0.013610   0.268059  -0.022071  -0.000404
     5  N    0.243681  -0.022071  -0.022071  -0.022071   5.899627   0.348559
     6  H   -0.005209  -0.000053  -0.000407  -0.000404   0.348559   0.376084
     7  H   -0.005209  -0.000407  -0.000404  -0.000053   0.348559  -0.017680
     8  H   -0.005209  -0.000404  -0.000053  -0.000407   0.348559  -0.017680
              7          8
     1  C   -0.005209  -0.005209
     2  H   -0.000407  -0.000404
     3  H   -0.000404  -0.000053
     4  H   -0.000053  -0.000407
     5  N    0.348559   0.348559
     6  H   -0.017680  -0.017680
     7  H    0.376084  -0.017680
     8  H   -0.017680   0.376084
 Mulliken atomic charges:
              1
     1  C   -0.928396
     2  H    0.366932
     3  H    0.366932
     4  H    0.366932
     5  N   -0.122769
     6  H    0.316790
     7  H    0.316790
     8  H    0.316790
 Sum of Mulliken atomic charges =   1.00000
 Mulliken charges with hydrogens summed into heavy atoms:
              1
     1  C    0.172399
     5  N    0.827601
 Sum of Mulliken charges with hydrogens summed into heavy atoms =   1.00000
 APT atomic charges:
              1
     1  C    0.217382
     2  H    0.072576
     3  H    0.072575
     4  H    0.072575
     5  N   -0.183472
     6  H    0.249454
     7  H    0.249455
     8  H    0.249455
 Sum of APT charges=   1.00000
 APT Atomic charges with hydrogens summed into heavy atoms:
              1
     1  C    0.435109
     2  H    0.000000
     3  H    0.000000
     4  H    0.000000
     5  N    0.564892
     6  H    0.000000
     7  H    0.000000
     8  H    0.000000
 Sum of APT charges=   1.00000
 Electronic spatial extent (au):  <R**2>=             94.7617
 Charge=              1.0000 electrons
 Dipole moment (field-independent basis, Debye):
    X=              0.0000    Y=              0.0000    Z=              2.1727  Tot=              2.1727
 Quadrupole moment (field-independent basis, Debye-Ang):
   XX=            -10.1924   YY=            -10.1924   ZZ=             -6.7134
   XY=              0.0000   XZ=              0.0000   YZ=              0.0000
 Traceless Quadrupole moment (field-independent basis, Debye-Ang):
   XX=             -1.1596   YY=             -1.1596   ZZ=              2.3193
   XY=              0.0000   XZ=              0.0000   YZ=              0.0000
 Octapole moment (field-independent basis, Debye-Ang**2):
  XXX=             -0.3782  YYY=             -0.1086  ZZZ=              5.7273  XYY=              0.3782
  XXY=              0.1086  XXZ=              2.5667  XZZ=              0.0000  YZZ=              0.0000
  YYZ=              2.5667  XYZ=              0.0000
 Hexadecapole moment (field-independent basis, Debye-Ang**3):
 XXXX=            -18.2665 YYYY=            -18.2665 ZZZZ=            -62.7255 XXXY=              0.0000
 XXXZ=             -2.7392 YYYX=              0.0000 YYYZ=             -0.7829 ZZZX=              0.0000
 ZZZY=              0.0000 XXYY=             -6.0888 XXZZ=            -10.9142 YYZZ=            -10.9142
 XXYZ=              0.7829 YYXZ=              2.7392 ZZXY=              0.0000
 N-N= 4.758461005939D+01 E-N=-3.133115603893D+02  KE= 9.564342535033D+01
  Exact polarizability:  19.727   0.000  19.727   0.000   0.000  23.041
 Approx polarizability:  29.918   0.000  29.918   0.000   0.000  32.082
 No NMR shielding tensors so no spin-rotation constants.
 Leave Link  601 at Thu Feb 26 01:24:46 2015, MaxMem= 1073741824 cpu:       4.2
 (Enter /apps/gaussian/g09_c01/g09/l701.exe)
 Compute integral second derivatives.
 ... and contract with generalized density number  0.
 Leave Link  701 at Thu Feb 26 01:24:47 2015, MaxMem= 1073741824 cpu:       4.6
 (Enter /apps/gaussian/g09_c01/g09/l702.exe)
 L702 exits ... SP integral derivatives will be done elsewhere.
 Leave Link  702 at Thu Feb 26 01:24:47 2015, MaxMem= 1073741824 cpu:       0.1
 (Enter /apps/gaussian/g09_c01/g09/l703.exe)
 Compute integral second derivatives, UseDBF=F ICtDFT=           0.
 Integral derivatives from FoFDir, PRISM(SPDF).
 Calling FoFJK, ICntrl=    100527 FMM=F ISym2X=1 I1Cent= 0 IOpClX= 0 NMat=1 NMatS=1 NMatT=0.
 FoFCou: FMM=F IPFlag=           0 FMFlag=      100000 FMFlg1=         800
         NFxFlg=           0 DoJE=F BraDBF=F KetDBF=F FulRan=T
         Omega=  0.000000  0.000000  1.000000  0.000000  0.000000 ICntrl=  100527 IOpCl=  0
         NMat0=    1 NMatS0=    1 NMatT0=    0 NMatD0=    1 NMtDS0=    0 NMtDT0=    0
         I1Cent=           0 NGrid=           0.
 Petite list used in FoFCou.
 Leave Link  703 at Thu Feb 26 01:33:39 2015, MaxMem= 1073741824 cpu:    4246.6
 (Enter /apps/gaussian/g09_c01/g09/l716.exe)
 Dipole        =-6.93468182D-15-7.42503618D-15 8.54824983D-01
 Polarizability= 1.97268740D+01-4.63892785D-06 1.97269020D+01
                 3.69172220D-06 3.03006677D-05 2.30410457D+01
 HyperPolar    = 1.44719449D+00-4.12964408D-01-1.44948147D+00
                 4.12184266D-01-2.17481255D+00-1.69068994D-04
                -2.17485351D+00-8.05716878D-05 3.53896976D-04
                 1.15481725D+01
 ***** Axes restored to original set *****
 -------------------------------------------------------------------
 Center     Atomic                   Forces (Hartrees/Bohr)
 Number     Number              X              Y              Z
 -------------------------------------------------------------------
      1        6           0.000000000    0.000000000    0.005089586
      2        1          -0.000196030   -0.002104678   -0.000827034
      3        1          -0.001724690    0.001222107   -0.000827034
      4        1           0.001920720    0.000882572   -0.000827034
      5        7           0.000000000    0.000000000   -0.002634533
      6        1           0.000125556    0.001352215    0.000008683
      7        1          -0.001233830   -0.000567373    0.000008683
      8        1           0.001108275   -0.000784842    0.000008683
 -------------------------------------------------------------------
 Cartesian Forces:  Max     0.005089586 RMS     0.001497691
 Force constants in Cartesian coordinates: 
                1             2             3             4             5 
      1  0.605671D+00
      2  0.000000D+00  0.605671D+00
      3  0.000000D+00  0.000000D+00  0.383773D+00
      4 -0.481388D-01 -0.237499D-01 -0.764963D-02  0.448604D-01
      5 -0.237505D-01 -0.301330D+00 -0.822296D-01  0.252320D-01  0.313846D+00
      6 -0.634154D-02 -0.681583D-01 -0.674036D-01  0.784464D-02  0.843210D-01
      7 -0.217464D+00  0.121510D+00 -0.673881D-01  0.379088D-02 -0.341355D-02
      8  0.121510D+00 -0.132005D+00  0.477396D-01  0.219490D-01 -0.121105D-01
      9 -0.558562D-01  0.395712D-01 -0.674036D-01  0.862912D-02 -0.413087D-02
     10 -0.258600D+00 -0.977592D-01  0.750378D-01 -0.109090D-03  0.116190D-02
     11 -0.977600D-01 -0.908681D-01  0.344900D-01 -0.242007D-01 -0.821056D-02
     12  0.621978D-01  0.285872D-01 -0.674036D-01 -0.924276D-02 -0.246890D-02
     13 -0.899409D-01 -0.180302D-05  0.000000D+00 -0.100935D-02  0.660109D-03
     14  0.179442D-05 -0.899407D-01  0.000000D+00  0.659353D-03  0.602589D-02
     15  0.000000D+00  0.000000D+00 -0.142846D+00  0.339072D-03  0.365394D-02
     16 -0.677117D-04  0.543752D-03 -0.203654D-03  0.345910D-03  0.676142D-04
     17  0.543167D-03  0.571572D-02 -0.219430D-02  0.675226D-04  0.106590D-02
     18 -0.295784D-02 -0.317760D-01 -0.129054D-01  0.204957D-03  0.220642D-02
     19  0.474056D-02  0.223287D-02  0.200203D-02  0.222683D-03  0.287048D-03
     20  0.223232D-02  0.907481D-03  0.920700D-03  0.744346D-03  0.263407D-03
     21  0.289977D-01  0.133264D-01 -0.129054D-01  0.308788D-03 -0.710597D-03
     22  0.379921D-02 -0.277579D-02 -0.179846D-02  0.374374D-04 -0.244605D-03
     23 -0.277631D-02  0.184881D-02  0.127341D-02 -0.701705D-03  0.449520D-03
     24 -0.260399D-01  0.184495D-01 -0.129054D-01 -0.434155D-03 -0.641552D-03
                6             7             8             9            10 
      6  0.820858D-01
      7  0.248325D-02  0.224748D+00
      8  0.923891D-02 -0.129090D+00  0.133958D+00
      9  0.461596D-02  0.691018D-01 -0.489542D-01  0.820858D-01
     10 -0.737126D-03 -0.161613D-01 -0.104296D-01  0.675951D-02  0.268451D+00
     11  0.953847D-02  0.149329D-01  0.784162D-02 -0.677001D-02  0.103858D+00
     12  0.461596D-02 -0.789200D-02 -0.540761D-02  0.461596D-02 -0.769465D-01
     13 -0.323434D-02  0.369573D-02 -0.337586D-02 -0.285020D-01  0.483848D-02
     14 -0.347787D-01 -0.337666D-02  0.132084D-02  0.201904D-01  0.271611D-02
     15 -0.200654D-01  0.299490D-02 -0.212066D-02 -0.200653D-01 -0.333404D-02
     16  0.154288D-03 -0.193381D-03 -0.504132D-03 -0.706573D-03 -0.632647D-04
     17  0.165359D-02 -0.468338D-04  0.679471D-03  0.579159D-03  0.186464D-03
     18 -0.627940D-02 -0.769789D-03  0.878807D-04  0.121472D-02  0.772677D-03
     19 -0.148280D-03  0.756263D-03  0.286691D-03 -0.780747D-03  0.944416D-03
     20 -0.901489D-03 -0.170410D-03 -0.269306D-03  0.474783D-03  0.277933D-03
     21  0.121472D-02 -0.338522D-03  0.696765D-03  0.121589D-02 -0.201329D-02
     22 -0.208009D-04  0.827384D-03 -0.345502D-03  0.135490D-02  0.699833D-03
     23 -0.913538D-03 -0.345593D-03  0.584423D-03 -0.960411D-03 -0.115655D-04
     24  0.121589D-02  0.180833D-02 -0.128071D-02 -0.627940D-02  0.461001D-03
               11            12            13            14            15 
     11  0.902552D-01
     12 -0.353668D-01  0.820858D-01
     13  0.271689D-02  0.317364D-01  0.688704D+00
     14  0.178093D-03  0.145883D-01  0.000000D+00  0.688704D+00
     15 -0.153334D-02 -0.200654D-01  0.000000D+00  0.000000D+00  0.480065D+00
     16  0.643564D-03  0.801548D-03 -0.602980D-01 -0.266332D-01 -0.984065D-02
     17  0.550222D-03  0.438755D-03 -0.266327D-01 -0.343894D+00 -0.105680D+00
     18 -0.552135D-04  0.121589D-02 -0.105036D-01 -0.112807D+00 -0.923410D-01
     19  0.278025D-03 -0.150919D-02 -0.296060D+00 -0.109484D+00  0.964417D-01
     20  0.467391D-03 -0.693176D-03 -0.109484D+00 -0.108132D+00  0.443176D-01
     21 -0.925710D-03 -0.627940D-02  0.102946D+00  0.473071D-01 -0.923410D-01
     22 -0.468864D-03  0.854853D-03 -0.249930D+00  0.136117D+00 -0.866010D-01
     23 -0.213743D-03  0.322330D-03  0.136118D+00 -0.154262D+00  0.613622D-01
     24  0.622716D-03  0.121472D-02 -0.924422D-01  0.655001D-01 -0.923410D-01
               16            17            18            19            20 
     16  0.567263D-01
     17  0.289057D-01  0.364517D+00
     18  0.107697D-01  0.115673D+00  0.989998D-01
     19 -0.843116D-03 -0.274410D-04 -0.412432D-03  0.312602D+00
     20 -0.308681D-01 -0.116987D-01  0.134901D-01  0.118824D+00  0.108641D+00
     21 -0.128636D-01 -0.408231D-02  0.504773D-02 -0.105560D+00 -0.485095D-01
     22  0.439339D-02 -0.299586D-02  0.289642D-02 -0.223630D-01  0.184436D-01
     23  0.278448D-01 -0.169352D-01  0.131814D-01 -0.123970D-01  0.982117D-02
     24  0.118890D-01 -0.638787D-02  0.504773D-02  0.996718D-02 -0.909905D-02
               21            22            23            24 
     21  0.989998D-01
     22 -0.114766D-01  0.262536D+00
     23 -0.710223D-02 -0.147730D+00  0.158707D+00
     24  0.504773D-02  0.947906D-01 -0.671631D-01  0.989998D-01
 Force constants in internal coordinates: 
                1             2             3             4             5 
      1  0.343609D+00
      2  0.147115D-02  0.343609D+00
      3  0.147118D-02  0.147112D-02  0.343609D+00
      4  0.315994D-02  0.315990D-02  0.315984D-02  0.253305D+00
      5 -0.148296D-02  0.317949D-03  0.317826D-03  0.571730D-02  0.410392D+00
      6  0.317943D-03  0.317856D-03 -0.148292D-02  0.571711D-02  0.240788D-02
      7  0.317838D-03 -0.148296D-02  0.317959D-03  0.571713D-02  0.240785D-02
      8  0.370678D-02  0.370727D-02 -0.142295D-02 -0.248190D-01 -0.210324D-04
      9  0.370728D-02 -0.142293D-02  0.370676D-02 -0.248190D-01 -0.204483D-04
     10  0.924160D-03 -0.361241D-02 -0.361241D-02  0.261011D-01  0.264165D-02
     11 -0.142294D-02  0.370678D-02  0.370727D-02 -0.248190D-01  0.923556D-03
     12 -0.361236D-02  0.924157D-03 -0.361241D-02  0.261011D-01 -0.178470D-02
     13 -0.361243D-02 -0.361236D-02  0.924239D-03  0.261012D-01 -0.178459D-02
     14  0.502823D-03  0.870251D-04  0.862868D-04  0.142055D-01 -0.531810D-02
     15  0.870024D-04  0.863024D-04  0.502806D-03  0.142057D-01 -0.418549D-02
     16  0.862887D-04  0.502794D-03  0.870371D-04  0.142056D-01 -0.418513D-02
     17 -0.309392D-03 -0.108127D-03 -0.309089D-03 -0.152664D-01  0.726329D-02
     18 -0.309091D-03 -0.309392D-03 -0.108115D-03 -0.152664D-01  0.726772D-02
     19 -0.108118D-03 -0.309091D-03 -0.309413D-03 -0.152663D-01  0.179869D-03
     20  0.000000D+00 -0.289650D-02  0.289644D-02  0.000000D+00  0.307244D-05
     21  0.980383D-05 -0.291561D-02  0.290594D-02  0.000000D+00  0.275310D-02
     22 -0.932587D-05 -0.290611D-02  0.291554D-02  0.000000D+00 -0.275285D-02
     23  0.290593D-02  0.979729D-05 -0.291565D-02  0.000000D+00  0.465360D-03
     24  0.291555D-02 -0.931878D-05 -0.290615D-02  0.000000D+00  0.321539D-02
     25  0.289642D-02  0.000000D+00 -0.289654D-02  0.000000D+00 -0.229056D-02
     26 -0.290611D-02  0.291554D-02 -0.929817D-05  0.000000D+00 -0.459980D-03
     27 -0.289650D-02  0.289643D-02  0.000000D+00  0.000000D+00  0.229005D-02
     28 -0.291563D-02  0.290593D-02  0.980586D-05  0.000000D+00 -0.321590D-02
                6             7             8             9            10 
      6  0.410392D+00
      7  0.240783D-02  0.410392D+00
      8  0.923556D-03 -0.204456D-04  0.498250D-01
      9 -0.210248D-04  0.923551D-03  0.114419D-01  0.498250D-01
     10 -0.178471D-02 -0.178457D-02 -0.434033D-01 -0.434004D-01  0.126382D+00
     11 -0.204619D-04 -0.210316D-04  0.114419D-01  0.114419D-01  0.103387D-01
     12 -0.178454D-02  0.264162D-02 -0.434003D-01  0.103387D-01 -0.229834D-01
     13  0.264161D-02 -0.178470D-02  0.103387D-01 -0.434033D-01 -0.229834D-01
     14 -0.418519D-02 -0.418548D-02 -0.374247D-02 -0.374200D-02  0.162487D-01
     15 -0.531810D-02 -0.418513D-02  0.325669D-02 -0.374245D-02 -0.590020D-02
     16 -0.418547D-02 -0.531810D-02 -0.374199D-02  0.325669D-02 -0.590231D-02
     17  0.726773D-02  0.179875D-03  0.604355D-03  0.333502D-02 -0.445168D-02
     18  0.179877D-03  0.726329D-02  0.333503D-02  0.604091D-03 -0.445058D-02
     19  0.726332D-02  0.726772D-02  0.604087D-03  0.604356D-03  0.412406D-02
     20 -0.229057D-02  0.229005D-02 -0.555623D-02  0.555486D-02  0.159755D-05
     21  0.465326D-03 -0.321589D-02 -0.511844D-02  0.467930D-02  0.141564D-02
     22  0.321540D-02 -0.459976D-03 -0.468067D-02  0.511709D-02 -0.141241D-02
     23 -0.321588D-02  0.275310D-02  0.467929D-02  0.437928D-03  0.688859D-02
     24 -0.459989D-03 -0.275284D-02  0.511708D-02 -0.437634D-03  0.830263D-02
     25  0.229008D-02  0.307472D-05  0.555485D-02  0.000000D+00  0.547458D-02
     26 -0.275284D-02  0.321538D-02 -0.437619D-03 -0.468067D-02 -0.688895D-02
     27  0.305178D-05 -0.229056D-02  0.000000D+00 -0.555623D-02 -0.547491D-02
     28  0.275313D-02  0.465352D-03  0.437936D-03 -0.511844D-02 -0.830296D-02
               11            12            13            14            15 
     11  0.498250D-01
     12 -0.434033D-01  0.126382D+00
     13 -0.434003D-01 -0.229833D-01  0.126382D+00
     14  0.325668D-02 -0.590020D-02 -0.590231D-02  0.948419D-01
     15 -0.374200D-02 -0.590234D-02  0.162487D-01 -0.174199D-01  0.948419D-01
     16 -0.374246D-02  0.162487D-01 -0.590024D-02 -0.174199D-01 -0.174199D-01
     17  0.604086D-03  0.412406D-02 -0.445056D-02 -0.387061D-01 -0.387064D-01
     18  0.604355D-03 -0.445168D-02  0.412407D-02 -0.387064D-01  0.129299D-01
     19  0.333503D-02 -0.445058D-02 -0.445167D-02  0.129299D-01 -0.387061D-01
     20  0.000000D+00 -0.547488D-02  0.547454D-02  0.000000D+00 -0.228332D-02
     21  0.437933D-03 -0.830294D-02  0.688858D-02  0.369174D-02  0.140846D-02
     22 -0.437616D-03 -0.688894D-02  0.830261D-02 -0.369224D-02  0.510068D-02
     23 -0.511844D-02  0.141564D-02 -0.830294D-02  0.140845D-02 -0.510053D-02
     24 -0.468068D-02 -0.141242D-02 -0.688891D-02  0.510066D-02 -0.140875D-02
     25 -0.555623D-02  0.157930D-05 -0.547488D-02 -0.228332D-02  0.228347D-02
     26  0.511709D-02  0.830263D-02 -0.141241D-02 -0.140874D-02 -0.369226D-02
     27  0.555485D-02  0.547457D-02  0.162076D-05  0.228347D-02  0.000000D+00
     28  0.467930D-02  0.688857D-02  0.141565D-02 -0.510051D-02  0.369174D-02
               16            17            18            19            20 
     16  0.948419D-01
     17  0.129299D-01  0.516200D-01
     18 -0.387061D-01  0.883879D-02  0.516200D-01
     19 -0.387064D-01  0.883879D-02  0.883879D-02  0.516200D-01
     20  0.228346D-02 -0.692729D-02  0.692770D-02  0.000000D+00  0.136329D-01
     21 -0.510053D-02  0.585398D-02  0.536952D-03 -0.639058D-02  0.323496D-02
     22 -0.140876D-02 -0.536777D-03 -0.585356D-02  0.639068D-02  0.323498D-02
     23  0.369175D-02 -0.639059D-02  0.585398D-02  0.536950D-03  0.387202D-02
     24 -0.369224D-02  0.639069D-02 -0.536773D-03 -0.585356D-02 -0.652593D-02
     25  0.000000D+00  0.000000D+00 -0.692729D-02  0.692769D-02 -0.652591D-02
     26  0.510067D-02 -0.585356D-02  0.639069D-02 -0.536769D-03  0.387203D-02
     27 -0.228332D-02  0.692771D-02  0.000000D+00 -0.692728D-02 -0.652592D-02
     28  0.140845D-02  0.536948D-03 -0.639058D-02  0.585397D-02 -0.652590D-02
               21            22            23            24            25 
     21  0.141940D-01
     22  0.351555D-02  0.141941D-01
     23 -0.680648D-02 -0.708705D-02  0.141940D-01
     24  0.415259D-02 -0.680649D-02  0.351554D-02  0.141941D-01
     25 -0.652590D-02  0.387203D-02  0.323496D-02  0.323498D-02  0.136329D-01
     26 -0.708706D-02 -0.680650D-02  0.415259D-02 -0.680650D-02 -0.652594D-02
     27  0.387202D-02 -0.652594D-02 -0.652591D-02  0.387203D-02 -0.652593D-02
     28 -0.680647D-02  0.415259D-02 -0.680648D-02 -0.708706D-02  0.387201D-02
               26            27            28 
     26  0.141941D-01
     27  0.323498D-02  0.136329D-01
     28  0.351554D-02  0.323497D-02  0.141940D-01
 Leave Link  716 at Thu Feb 26 01:33:39 2015, MaxMem= 1073741824 cpu:       0.2
 (Enter /apps/gaussian/g09_c01/g09/l103.exe)

 GradGradGradGradGradGradGradGradGradGradGradGradGradGradGradGradGradGrad
 Berny optimization.
 Red2BG is reusing G-inverse.
 Internal  Forces:  Max     0.002608484 RMS     0.001007061
 Search for a local minimum.
 Step number   1 out of a maximum of   38
 All quantities printed in internal units (Hartrees-Bohrs-Radians)
 RMS Force = .10071D-02 SwitMx=.10000D-02 MixMth= 1
 Mixed Optimization -- RFO/linear search
 Second derivative matrix not updated -- analytic derivatives used.
 ITU=  0
     Eigenvalues ---    0.00174   0.04482   0.04482   0.04700   0.04700
     Eigenvalues ---    0.11329   0.12620   0.12620   0.12890   0.18605
     Eigenvalues ---    0.18605   0.29128   0.34254   0.34254   0.34705
     Eigenvalues ---    0.40846   0.40846   0.41696
 RFO step:  Lambda=-9.75973305D-05 EMin= 1.74322605D-03
 Linear search not attempted -- first point.
 Iteration  1 RMS(Cart)=  0.00317212 RMS(Int)=  0.00000596
 Iteration  2 RMS(Cart)=  0.00000510 RMS(Int)=  0.00000311
 Iteration  3 RMS(Cart)=  0.00000000 RMS(Int)=  0.00000311
 ClnCor:  largest displacement from symmetrization is 2.83D-08 for atom     7.
 Variable       Old X    -DE/DX   Delta X   Delta X   Delta X     New X
                                 (Linear)    (Quad)   (Total)
    R1        2.05946   0.00227   0.00000   0.00678   0.00678   2.06624
    R2        2.05946   0.00227   0.00000   0.00678   0.00678   2.06624
    R3        2.05946   0.00227   0.00000   0.00678   0.00678   2.06624
    R4        2.86675  -0.00261   0.00000  -0.01200  -0.01200   2.85475
    R5        1.94289   0.00127   0.00000   0.00310   0.00310   1.94599
    R6        1.94289   0.00127   0.00000   0.00310   0.00310   1.94599
    R7        1.94289   0.00127   0.00000   0.00310   0.00310   1.94599
    A1        1.93261  -0.00013   0.00000  -0.00319  -0.00320   1.92941
    A2        1.93261  -0.00013   0.00000  -0.00319  -0.00320   1.92941
    A3        1.88811   0.00014   0.00000   0.00336   0.00335   1.89146
    A4        1.93261  -0.00013   0.00000  -0.00319  -0.00320   1.92941
    A5        1.88811   0.00014   0.00000   0.00336   0.00335   1.89146
    A6        1.88811   0.00014   0.00000   0.00336   0.00335   1.89146
    A7        1.94749  -0.00044   0.00000  -0.00204  -0.00204   1.94545
    A8        1.94749  -0.00044   0.00000  -0.00204  -0.00204   1.94545
    A9        1.94749  -0.00044   0.00000  -0.00204  -0.00204   1.94545
   A10        1.87238   0.00048   0.00000   0.00219   0.00219   1.87456
   A11        1.87238   0.00048   0.00000   0.00219   0.00219   1.87456
   A12        1.87238   0.00048   0.00000   0.00219   0.00219   1.87456
    D1        3.14146   0.00000   0.00000   0.00011   0.00011   3.14157
    D2       -1.04733   0.00000   0.00000   0.00011   0.00011  -1.04722
    D3        1.04707   0.00000   0.00000   0.00011   0.00011   1.04718
    D4       -1.04733   0.00000   0.00000   0.00011   0.00011  -1.04722
    D5        1.04707   0.00000   0.00000   0.00011   0.00011   1.04718
    D6        3.14146   0.00000   0.00000   0.00011   0.00011   3.14157
    D7        1.04707   0.00000   0.00000   0.00011   0.00011   1.04718
    D8        3.14146   0.00000   0.00000   0.00011   0.00011   3.14157
    D9       -1.04733   0.00000   0.00000   0.00011   0.00011  -1.04722
         Item               Value     Threshold  Converged?
 Maximum Force            0.002608     0.000002     NO 
 RMS     Force            0.001007     0.000001     NO 
 Maximum Displacement     0.010214     0.000006     NO 
 RMS     Displacement     0.003172     0.000004     NO 
 Predicted change in Energy=-4.881829D-05
 GradGradGradGradGradGradGradGradGradGradGradGradGradGradGradGradGradGrad

 Leave Link  103 at Thu Feb 26 01:33:39 2015, MaxMem= 1073741824 cpu:       0.1
 (Enter /apps/gaussian/g09_c01/g09/l202.exe)
                          Input orientation:                          
 ---------------------------------------------------------------------
 Center     Atomic      Atomic             Coordinates (Angstroms)
 Number     Number       Type             X           Y           Z
 ---------------------------------------------------------------------
      1          6           0        0.000000    0.000000   -0.799050
      2          1           0       -0.096135   -1.033208   -1.143691
      3          1           0       -0.846717    0.599859   -1.143691
      4          1           0        0.942852    0.433349   -1.143691
      5          7           0        0.000000    0.000000    0.711619
      6          1           0        0.088806    0.954218    1.088467
      7          1           0       -0.870780   -0.400201    1.088467
      8          1           0        0.781974   -0.554017    1.088467
 ---------------------------------------------------------------------
                    Distance matrix (angstroms):
                    1          2          3          4          5
     1  C    0.000000
     2  H    1.093407   0.000000
     3  H    1.093407   1.797299   0.000000
     4  H    1.093407   1.797299   1.797299   0.000000
     5  N    1.510669   2.125779   2.125779   2.125779   0.000000
     6  H    2.116870   2.994427   2.446079   2.446064   1.029773
     7  H    2.116870   2.446079   2.446064   2.994427   1.029773
     8  H    2.116870   2.446064   2.994427   2.446079   1.029773
                    6          7          8
     6  H    0.000000
     7  H    1.659896   0.000000
     8  H    1.659896   1.659896   0.000000
 Stoichiometry    CH6N(1+)
 Framework group  C3[C3(CN),X(H6)]
 Deg. of freedom     6
 Full point group                 C3      NOp   3
 RotChk:  IX=0 Diff= 0.00D+00
 Largest Abelian subgroup         C1      NOp   1
 Largest concise Abelian subgroup C1      NOp   1
                         Standard orientation:                         
 ---------------------------------------------------------------------
 Center     Atomic      Atomic             Coordinates (Angstroms)
 Number     Number       Type             X           Y           Z
 ---------------------------------------------------------------------
      1          6           0        0.000000    0.000000   -0.800174
      2          1           0        1.033208   -0.096135   -1.144815
      3          1           0       -0.599859   -0.846717   -1.144815
      4          1           0       -0.433349    0.942852   -1.144815
      5          7           0        0.000000    0.000000    0.710495
      6          1           0       -0.954218    0.088806    1.087343
      7          1           0        0.400201   -0.870780    1.087343
      8          1           0        0.554017    0.781974    1.087343
 ---------------------------------------------------------------------
 Rotational constants (GHZ):     83.7777719     19.9717794     19.9717794
 Leave Link  202 at Thu Feb 26 01:33:39 2015, MaxMem= 1073741824 cpu:       0.0
 (Enter /apps/gaussian/g09_c01/g09/l301.exe)
 Standard basis: Aug-CC-pVQZ (5D, 7F)
 Ernie: Thresh=  0.10000D-02 Tol=  0.10000D-05 Strict=F.
 Ernie:  6 primitive shells out of 172 were deleted.
 There are   436 symmetry adapted basis functions of A   symmetry.
 Integral buffers will be    131072 words long.
 Raffenetti 2 integral format.
 Two-electron integral symmetry is turned on.
   436 basis functions,   590 primitive gaussians,   540 cartesian basis functions
     9 alpha electrons        9 beta electrons
       nuclear repulsion energy        47.6103590226 Hartrees.
 IExCor= 1009 DFT=T Ex=PBE Corr=PBE ExCW=0 ScaHFX=  0.000000
 ScaDFX=  1.000000  1.000000  1.000000  1.000000 ScalE2=  1.000000  1.000000
 IRadAn=      5 IRanWt=     -1 IRanGd=            0 ICorTp=0
 NAtoms=    8 NActive=    8 NUniq=    4 SFac= 4.00D+00 NAtFMM=   60 NAOKFM=F Big=F
 Leave Link  301 at Thu Feb 26 01:33:39 2015, MaxMem= 1073741824 cpu:       0.3
 (Enter /apps/gaussian/g09_c01/g09/l302.exe)
 NPDir=0 NMtPBC=     1 NCelOv=     1 NCel=       1 NClECP=     1 NCelD=      1
         NCelK=      1 NCelE2=     1 NClLst=     1 CellRange=     0.0.
 One-electron integrals computed using PRISM.
 NBasis=   436 RedAO= T  NBF=   436
 NBsUse=   436 1.00D-06 NBFU=   436
 Precomputing XC quadrature grid using
 IXCGrd= 2 IRadAn=           5 IRanWt=          -1 IRanGd=           0 AccXCQ= 0.00D+00.
 NRdTot=     687 NPtTot=      184910 NUsed=      189836 NTot=      189868
 NSgBfM=   540   540   540   540   540 NAtAll=     8     8.
 Leave Link  302 at Thu Feb 26 01:33:40 2015, MaxMem= 1073741824 cpu:       4.0
 (Enter /apps/gaussian/g09_c01/g09/l303.exe)
 DipDrv:  MaxL=1.
 Leave Link  303 at Thu Feb 26 01:33:40 2015, MaxMem= 1073741824 cpu:       0.5
 (Enter /apps/gaussian/g09_c01/g09/l401.exe)
 Initial guess read from the read-write file.
 B after Tr=     0.000000    0.000000    0.000000
         Rot=    1.000000    0.000000    0.000000    0.000000 Ang=   0.00 deg.
 Guess basis will be translated and rotated to current coordinates.
 Initial guess orbital symmetries:
       Occupied  (A) (A) (A) (A) (E) (E) (A) (E) (E)
       Virtual   (A) (E) (E) (A) (E) (E) (A) (A) (E) (E) (E) (E)
                 (A) (A) (E) (E) (E) (E) (A) (E) (E) (A) (A) (A)
                 (E) (E) (A) (E) (E) (E) (E) (A) (E) (E) (A) (E)
                 (E) (A) (A) (E) (E) (A) (E) (E) (E) (E) (A) (E)
                 (E) (A) (A) (E) (E) (A) (A) (E) (E) (E) (E) (E)
                 (E) (A) (E) (E) (A) (A) (E) (E) (A) (A) (E) (E)
                 (A) (E) (E) (E) (E) (A) (E) (E) (E) (E) (A) (E)
                 (E) (A) (E) (E) (A) (E) (E) (A) (A) (E) (E) (E)
                 (E) (A) (A) (E) (E) (E) (E) (A) (E) (E) (A) (A)
                 (E) (E) (A) (E) (E) (A) (A) (E) (E) (E) (E) (E)
                 (E) (A) (A) (E) (E) (A) (A) (A) (E) (E) (E) (E)
                 (A) (E) (E) (E) (E) (A) (E) (E) (E) (E) (A) (A)
                 (E) (E) (A) (A) (E) (E) (E) (E) (A) (E) (E) (E)
                 (E) (A) (A) (A) (E) (E) (A) (E) (E) (E) (E) (A)
                 (E) (E) (A) (A) (E) (E) (A) (E) (E) (A) (E) (E)
                 (A) (E) (E) (A) (E) (E) (E) (E) (A) (E) (E) (A)
                 (A) (E) (E) (A) (E) (E) (A) (E) (E) (A) (A) (E)
                 (E) (E) (E) (A) (E) (E) (A) (E) (E) (A) (A) (E)
                 (E) (A) (E) (E) (E) (E) (A) (E) (E) (A) (E) (E)
                 (E) (E) (A) (A) (A) (E) (E) (A) (A) (E) (E) (E)
                 (E) (A) (A) (E) (E) (E) (E) (A) (E) (E) (A) (E)
                 (E) (E) (E) (A) (A) (E) (E) (E) (E) (A) (E) (E)
                 (A) (E) (E) (E) (E) (A) (A) (E) (E) (A) (E) (E)
                 (A) (E) (E) (A) (A) (E) (E) (A) (E) (E) (A) (E)
                 (E) (A) (A) (E) (E) (A) (A) (E) (E) (E) (E) (A)
                 (E) (E) (E) (E) (E) (E) (A) (A) (A) (E) (E) (A)
                 (E) (E) (A) (E) (E) (A) (E) (E) (A) (A) (E) (E)
                 (E) (E) (A) (E) (E) (E) (E) (A) (A) (E) (E) (E)
                 (E) (A) (A) (E) (E) (E) (E) (E) (E) (A) (E) (E)
                 (A) (A) (A) (E) (E) (A) (A) (E) (E) (A) (E) (E)
                 (A) (E) (E) (E) (E) (E) (E) (E) (E) (A) (A) (A)
                 (E) (E) (E) (E) (E) (E) (A) (A) (E) (E) (A) (E)
                 (E) (A) (A) (E) (E) (E) (E) (E) (E) (E) (E) (A)
                 (A) (A) (A) (E) (E) (E) (E) (A) (A) (E) (E) (E)
                 (E) (A) (A) (E) (E) (A) (E) (E) (A) (E) (E) (E)
                 (E) (A) (E) (E) (A) (A) (A)
 The electronic state of the initial guess is 1-A.
 Leave Link  401 at Thu Feb 26 01:33:41 2015, MaxMem= 1073741824 cpu:       5.9
 (Enter /apps/gaussian/g09_c01/g09/l502.exe)
 Closed shell SCF:
 Requested convergence on RMS density matrix=1.00D-08 within 128 cycles.
 Requested convergence on MAX density matrix=1.00D-06.
 Requested convergence on             energy=1.00D-06.
 No special actions if energy rises.
 Using DIIS extrapolation, IDIIS=  1040.
 Integral symmetry usage will be decided dynamically.
       189751 words used for storage of precomputed grid.
 IEnd=     1091081 IEndB=     1091081 NGot=  1073741824 MDV=  1072959524
 LenX=  1072959524 LenY=  1072667384
 Fock matrices will be formed incrementally for  20 cycles.

 Cycle   1  Pass 1  IDiag  1:
 FoFCou: FMM=F IPFlag=           0 FMFlag=      100000 FMFlg1=           0
         NFxFlg=           0 DoJE=T BraDBF=F KetDBF=F FulRan=T
         Omega=  0.000000  0.000000  1.000000  0.000000  0.000000 ICntrl=     500 IOpCl=  0
         NMat0=    1 NMatS0=    1 NMatT0=    0 NMatD0=    1 NMtDS0=    0 NMtDT0=    0
         I1Cent=           0 NGrid=           0.
 Petite list used in FoFCou.
 E= -96.1271473259798    
 DIIS: error= 4.72D-04 at cycle   1 NSaved=   1.
 NSaved= 1 IEnMin= 1 EnMin= -96.1271473259798     IErMin= 1 ErrMin= 4.72D-04
 ErrMax= 4.72D-04 EMaxC= 1.00D-01 BMatC= 7.97D-05 BMatP= 7.97D-05
 IDIUse=3 WtCom= 9.95D-01 WtEn= 4.72D-03
 Coeff-Com:  0.100D+01
 Coeff-En:   0.100D+01
 Coeff:      0.100D+01
 Gap=     0.425 Goal=   None    Shift=    0.000
 DSYEVD returned Info=         873 IAlg= 4 N=   436 NDim=   436 NE2=     2460245 trying DSYEV.
 RMSDP=1.71D-05 MaxDP=1.23D-03              OVMax= 2.22D-03

 Cycle   2  Pass 1  IDiag  1:
 RMSU=  1.21D-05    CP:  1.00D+00
 E= -96.1271768303446     Delta-E=       -0.000029504365 Rises=F Damp=F
 DIIS: error= 1.41D-04 at cycle   2 NSaved=   2.
 NSaved= 2 IEnMin= 2 EnMin= -96.1271768303446     IErMin= 2 ErrMin= 1.41D-04
 ErrMax= 1.41D-04 EMaxC= 1.00D-01 BMatC= 3.47D-06 BMatP= 7.97D-05
 IDIUse=3 WtCom= 9.99D-01 WtEn= 1.41D-03
 Coeff-Com:  0.702D-01 0.930D+00
 Coeff-En:   0.000D+00 0.100D+01
 Coeff:      0.701D-01 0.930D+00
 Gap=     0.344 Goal=   None    Shift=    0.000
 DSYEVD returned Info=       96139 IAlg= 4 N=   436 NDim=   436 NE2=     2460245 trying DSYEV.
 RMSDP=6.01D-06 MaxDP=6.28D-04 DE=-2.95D-05 OVMax= 1.22D-03

 Cycle   3  Pass 1  IDiag  1:
 RMSU=  3.70D-06    CP:  1.00D+00  8.34D-01
 E= -96.1271758711638     Delta-E=        0.000000959181 Rises=F Damp=F
 DIIS: error= 1.53D-04 at cycle   3 NSaved=   3.
 NSaved= 3 IEnMin= 2 EnMin= -96.1271768303446     IErMin= 2 ErrMin= 1.41D-04
 ErrMax= 1.53D-04 EMaxC= 1.00D-01 BMatC= 4.62D-06 BMatP= 3.47D-06
 IDIUse=3 WtCom= 4.47D-01 WtEn= 5.53D-01
 Coeff-Com:  0.113D-01 0.535D+00 0.454D+00
 Coeff-En:   0.000D+00 0.556D+00 0.444D+00
 Coeff:      0.504D-02 0.546D+00 0.449D+00
 Gap=     0.343 Goal=   None    Shift=    0.000
 DSYEVD returned Info=         873 IAlg= 4 N=   436 NDim=   436 NE2=     2460245 trying DSYEV.
 RMSDP=3.02D-06 MaxDP=3.36D-04 DE= 9.59D-07 OVMax= 6.33D-04

 Cycle   4  Pass 1  IDiag  1:
 RMSU=  7.54D-07    CP:  1.00D+00  8.93D-01  5.05D-01
 E= -96.1271802668440     Delta-E=       -0.000004395680 Rises=F Damp=F
 DIIS: error= 1.64D-05 at cycle   4 NSaved=   4.
 NSaved= 4 IEnMin= 4 EnMin= -96.1271802668440     IErMin= 4 ErrMin= 1.64D-05
 ErrMax= 1.64D-05 EMaxC= 1.00D-01 BMatC= 3.95D-08 BMatP= 3.47D-06
 IDIUse=1 WtCom= 1.00D+00 WtEn= 0.00D+00
 Coeff-Com:  0.119D-02 0.168D+00 0.151D+00 0.680D+00
 Coeff:      0.119D-02 0.168D+00 0.151D+00 0.680D+00
 Gap=     0.343 Goal=   None    Shift=    0.000
 DSYEVD returned Info=       96139 IAlg= 4 N=   436 NDim=   436 NE2=     2460245 trying DSYEV.
 RMSDP=2.98D-07 MaxDP=2.38D-05 DE=-4.40D-06 OVMax= 6.81D-05

 Cycle   5  Pass 1  IDiag  1:
 RMSU=  1.23D-07    CP:  1.00D+00  8.98D-01  5.04D-01  7.89D-01
 E= -96.1271802952622     Delta-E=       -0.000000028418 Rises=F Damp=F
 DIIS: error= 5.01D-06 at cycle   5 NSaved=   5.
 NSaved= 5 IEnMin= 5 EnMin= -96.1271802952622     IErMin= 5 ErrMin= 5.01D-06
 ErrMax= 5.01D-06 EMaxC= 1.00D-01 BMatC= 3.18D-09 BMatP= 3.95D-08
 IDIUse=1 WtCom= 1.00D+00 WtEn= 0.00D+00
 Coeff-Com:  0.738D-04 0.592D-01 0.518D-01 0.299D+00 0.590D+00
 Coeff:      0.738D-04 0.592D-01 0.518D-01 0.299D+00 0.590D+00
 Gap=     0.343 Goal=   None    Shift=    0.000
 DSYEVD returned Info=       96139 IAlg= 4 N=   436 NDim=   436 NE2=     2460245 trying DSYEV.
 RMSDP=7.91D-08 MaxDP=7.11D-06 DE=-2.84D-08 OVMax= 1.88D-05

 Cycle   6  Pass 1  IDiag  1:
 RMSU=  4.94D-08    CP:  1.00D+00  8.98D-01  5.04D-01  7.96D-01  8.18D-01
 E= -96.1271802970243     Delta-E=       -0.000000001762 Rises=F Damp=F
 DIIS: error= 2.38D-06 at cycle   6 NSaved=   6.
 NSaved= 6 IEnMin= 6 EnMin= -96.1271802970243     IErMin= 6 ErrMin= 2.38D-06
 ErrMax= 2.38D-06 EMaxC= 1.00D-01 BMatC= 8.10D-10 BMatP= 3.18D-09
 IDIUse=1 WtCom= 1.00D+00 WtEn= 0.00D+00
 Coeff-Com: -0.767D-04 0.157D-01 0.128D-01 0.104D+00 0.369D+00 0.498D+00
 Coeff:     -0.767D-04 0.157D-01 0.128D-01 0.104D+00 0.369D+00 0.498D+00
 Gap=     0.343 Goal=   None    Shift=    0.000
 DSYEVD returned Info=         655 IAlg= 4 N=   436 NDim=   436 NE2=     2460245 trying DSYEV.
 RMSDP=2.66D-08 MaxDP=2.36D-06 DE=-1.76D-09 OVMax= 6.77D-06

 Cycle   7  Pass 1  IDiag  1:
 RMSU=  1.12D-08    CP:  1.00D+00  8.98D-01  5.03D-01  7.91D-01  8.56D-01
                    CP:  7.40D-01
 E= -96.1271802976548     Delta-E=       -0.000000000630 Rises=F Damp=F
 DIIS: error= 1.41D-07 at cycle   7 NSaved=   7.
 NSaved= 7 IEnMin= 7 EnMin= -96.1271802976548     IErMin= 7 ErrMin= 1.41D-07
 ErrMax= 1.41D-07 EMaxC= 1.00D-01 BMatC= 1.60D-12 BMatP= 8.10D-10
 IDIUse=1 WtCom= 1.00D+00 WtEn= 0.00D+00
 Coeff-Com: -0.132D-04 0.211D-02 0.169D-02 0.139D-01 0.576D-01 0.101D+00
 Coeff-Com:  0.823D+00
 Coeff:     -0.132D-04 0.211D-02 0.169D-02 0.139D-01 0.576D-01 0.101D+00
 Coeff:      0.823D+00
 Gap=     0.343 Goal=   None    Shift=    0.000
 DSYEVD returned Info=         873 IAlg= 4 N=   436 NDim=   436 NE2=     2460245 trying DSYEV.
 RMSDP=2.50D-09 MaxDP=2.63D-07 DE=-6.30D-10 OVMax= 6.09D-07

 SCF Done:  E(RPBE-PBE) =  -96.1271802977     A.U. after    7 cycles
             Convg  =    0.2499D-08             -V/T =  2.0052
 KE= 9.562989153721D+01 PE=-3.133537266546D+02 EE= 7.398629579716D+01
 Leave Link  502 at Thu Feb 26 01:34:34 2015, MaxMem= 1073741824 cpu:     425.0
 (Enter /apps/gaussian/g09_c01/g09/l801.exe)
 Range of M.O.s used for correlation:     1   436
 NBasis=   436 NAE=     9 NBE=     9 NFC=     0 NFV=     0
 NROrb=    436 NOA=     9 NOB=     9 NVA=   427 NVB=   427

 **** Warning!!: The largest alpha MO coefficient is  0.14163642D+03

 Leave Link  801 at Thu Feb 26 01:34:34 2015, MaxMem= 1073741824 cpu:       0.1
 (Enter /apps/gaussian/g09_c01/g09/l1002.exe)
 Minotr:  Closed shell wavefunction.
          Direct CPHF calculation.
          Differentiating once with respect to electric field.
                with respect to dipole field.
          Electric field/nuclear overlap derivatives assumed to be zero.
          Using symmetry in CPHF.
          Requested convergence is 1.0D-08 RMS, and 1.0D-07 maximum.
          Secondary convergence is 1.0D-12 RMS, and 1.0D-12 maximum.
          NewPWx=F KeepS1=T KeepF1=T KeepIn=T MapXYZ=F SortEE=F KeepMc=T.
          MDV=    1073741756 using IRadAn=       1.
 Generate precomputed XC quadrature information.
          Solving linear equations simultaneously, MaxMat=       0.
          There are     3 degrees of freedom in the 1st order CPHF.  IDoFFX=0.
      3 vectors produced by pass  0 Test12= 1.28D-13 3.33D-08 XBig12= 1.46D+01 1.80D+00.
 AX will form     3 AO Fock derivatives at one time.
 FoFCou: FMM=F IPFlag=           0 FMFlag=      100000 FMFlg1=           0
         NFxFlg=           0 DoJE=T BraDBF=F KetDBF=F FulRan=T
         Omega=  0.000000  0.000000  1.000000  0.000000  0.000000 ICntrl=     500 IOpCl=  0
         NMat0=    3 NMatS0=    3 NMatT0=    0 NMatD0=    3 NMtDS0=    0 NMtDT0=    0
         I1Cent=           0 NGrid=           0.
 Symmetry not used in FoFCou.
      3 vectors produced by pass  1 Test12= 1.28D-13 3.33D-08 XBig12= 1.29D+00 4.76D-01.
      3 vectors produced by pass  2 Test12= 1.28D-13 3.33D-08 XBig12= 4.50D-01 1.99D-01.
      3 vectors produced by pass  3 Test12= 1.28D-13 3.33D-08 XBig12= 3.19D-02 3.71D-02.
      3 vectors produced by pass  4 Test12= 1.28D-13 3.33D-08 XBig12= 1.07D-02 2.22D-02.
[...]
      4        1           0.000000003    0.000000021    0.000000006
      5        7           0.000000000    0.000000000   -0.000000084
      6        1          -0.000000014    0.000000034    0.000000030
      7        1          -0.000000022   -0.000000029    0.000000030
      8        1           0.000000036   -0.000000005    0.000000030
 -------------------------------------------------------------------
 Cartesian Forces:  Max     0.000000084 RMS     0.000000026
 Force constants in Cartesian coordinates: 
                1             2             3             4             5 
      1  0.596128D+00
      2  0.000000D+00  0.596128D+00
      3  0.000000D+00  0.000000D+00  0.394458D+00
      4 -0.486501D-01 -0.230693D-01 -0.750102D-02  0.455119D-01
      5 -0.230694D-01 -0.294446D+00 -0.805870D-01  0.245462D-01  0.307040D+00
      6 -0.618086D-02 -0.663971D-01 -0.680434D-01  0.770230D-02  0.827513D-01
      7 -0.213018D+00  0.117967D+00 -0.660399D-01  0.369479D-02 -0.332242D-02
      8  0.117967D+00 -0.130078D+00  0.467896D-01  0.217746D-01 -0.121387D-01
      9 -0.544113D-01  0.385514D-01 -0.680435D-01  0.856158D-02 -0.412262D-02
     10 -0.252975D+00 -0.948977D-01  0.735410D-01 -0.190316D-03  0.107936D-02
     11 -0.948980D-01 -0.901202D-01  0.337974D-01 -0.240177D-01 -0.825364D-02
     12  0.605922D-01  0.278458D-01 -0.680435D-01 -0.917524D-02 -0.247231D-02
     13 -0.898790D-01  0.000000D+00  0.000000D+00 -0.100403D-02  0.653375D-03
     14  0.000000D+00 -0.898788D-01  0.000000D+00  0.653207D-03  0.595751D-02
     15  0.000000D+00  0.000000D+00 -0.150454D+00  0.333030D-03  0.358149D-02
     16 -0.131112D-04  0.527877D-03 -0.214814D-03  0.371565D-03  0.700853D-04
     17  0.527779D-03  0.560915D-02 -0.231118D-02  0.700413D-04  0.111797D-02
     18 -0.298984D-02 -0.321328D-01 -0.132912D-01  0.204690D-03  0.220046D-02
     19  0.466074D-02  0.217065D-02  0.210882D-02  0.226741D-03  0.288301D-03
     20  0.217060D-02  0.935327D-03  0.969469D-03  0.752413D-03  0.267776D-03
     21  0.293227D-01  0.134771D-01 -0.132912D-01  0.293276D-03 -0.708840D-03
     22  0.374648D-02 -0.269843D-02 -0.189410D-02  0.394700D-04 -0.245370D-03
     23 -0.269846D-02  0.184958D-02  0.134151D-02 -0.709474D-03  0.455233D-03
     24 -0.263329D-01  0.186556D-01 -0.132912D-01 -0.418582D-03 -0.642593D-03
                6             7             8             9            10 
      6  0.827539D-01
      7  0.244653D-02  0.220400D+00
      8  0.918214D-02 -0.125518D+00  0.132151D+00
      9  0.456624D-02  0.678136D-01 -0.480460D-01  0.827539D-01
     10 -0.710498D-03 -0.161704D-01 -0.103055D-01  0.672870D-02  0.262915D+00
     11  0.947586D-02  0.147916D-01  0.772645D-02 -0.670983D-02  0.100972D+00
     12  0.456624D-02 -0.785109D-02 -0.535324D-02  0.456624D-02 -0.755159D-01
     13 -0.323879D-02  0.365135D-02 -0.334102D-02 -0.285308D-01  0.478295D-02
     14 -0.348144D-01 -0.334123D-02  0.130216D-02  0.202121D-01  0.268772D-02
     15 -0.200024D-01  0.293518D-02 -0.207920D-02 -0.200023D-01 -0.326829D-02
     16  0.151523D-03 -0.193125D-03 -0.510003D-03 -0.697991D-03 -0.621674D-04
     17  0.162757D-02 -0.458915D-04  0.687642D-03  0.600386D-03  0.186689D-03
     18 -0.625702D-02 -0.760511D-03  0.100435D-03  0.120791D-02  0.765793D-03
     19 -0.170954D-03  0.764751D-03  0.290732D-03 -0.797728D-03  0.992043D-03
     20 -0.904671D-03 -0.173372D-03 -0.270049D-03  0.459597D-03  0.288148D-03
     21  0.120791D-02 -0.347210D-03  0.683799D-03  0.120855D-02 -0.200800D-02
     22  0.000000D+00  0.870690D-03 -0.358211D-03  0.133375D-02  0.708160D-03
     23 -0.920651D-03 -0.358255D-03  0.618842D-03 -0.945006D-03 -0.103537D-04
     24  0.120855D-02  0.180331D-02 -0.127750D-02 -0.625702D-02  0.467235D-03
               11            12            13            14            15 
     11  0.896362D-01
     12 -0.347053D-01  0.827539D-01
     13  0.268791D-02  0.317696D-01  0.684695D+00
     14  0.170565D-03  0.146023D-01  0.000000D+00  0.684694D+00
     15 -0.150236D-02 -0.200023D-01  0.000000D+00  0.000000D+00  0.485396D+00
     16  0.650793D-03  0.796887D-03 -0.608251D-01 -0.262631D-01 -0.965648D-02
     17  0.556870D-03  0.461054D-03 -0.262630D-01 -0.340672D+00 -0.103775D+00
     18 -0.412068D-04  0.120855D-02 -0.102720D-01 -0.110395D+00 -0.916449D-01
     19  0.288192D-03 -0.148528D-02 -0.293455D+00 -0.108046D+00  0.947004D-01
     20  0.497489D-03 -0.682560D-03 -0.108046D+00 -0.108042D+00  0.435249D-01
     21 -0.922964D-03 -0.625702D-02  0.100741D+00  0.463014D-01 -0.916449D-01
     22 -0.474466D-03  0.868945D-03 -0.247966D+00  0.134309D+00 -0.850439D-01
     23 -0.213643D-03  0.304285D-03  0.134309D+00 -0.153531D+00  0.602505D-01
     24  0.608404D-03  0.120791D-02 -0.904686D-01  0.640931D-01 -0.916449D-01
               16            17            18            19            20 
     16  0.571122D-01
     17  0.285218D-01  0.361021D+00
     18  0.105829D-01  0.113740D+00  0.987853D-01
     19 -0.790906D-03 -0.212486D-04 -0.452146D-03  0.309745D+00
     20 -0.306287D-01 -0.115645D-01  0.134211D-01  0.117336D+00  0.108389D+00
     21 -0.128111D-01 -0.402355D-02  0.499567D-02 -0.103793D+00 -0.477049D-01
     22  0.440076D-02 -0.297616D-02  0.292107D-02 -0.221429D-01  0.183011D-01
     23  0.276313D-01 -0.167561D-01  0.131065D-01 -0.123063D-01  0.978753D-02
     24  0.118491D-01 -0.631898D-02  0.499567D-02  0.989007D-02 -0.908299D-02
               21            22            23            24 
     21  0.987853D-01
     22 -0.113969D-01  0.260343D+00
     23 -0.710212D-02 -0.145857D+00  0.157790D+00
     24  0.499567D-02  0.932103D-01 -0.660351D-01  0.987853D-01
 Red2BG is reusing G-inverse.
 Force constants in internal coordinates: 
                1             2             3             4             5 
      1  0.336534D+00
      2  0.153573D-02  0.336534D+00
      3  0.153576D-02  0.153570D-02  0.336534D+00
      4  0.329170D-02  0.329166D-02  0.329159D-02  0.261856D+00
      5 -0.151871D-02  0.311535D-03  0.311238D-03  0.591627D-02  0.406008D+00
      6  0.311529D-03  0.311268D-03 -0.151866D-02  0.591608D-02  0.239685D-02
      7  0.311251D-03 -0.151870D-02  0.311544D-03  0.591611D-02  0.239682D-02
      8  0.366801D-02  0.366833D-02 -0.136825D-02 -0.248044D-01 -0.232577D-04
      9  0.366834D-02 -0.136823D-02  0.366799D-02 -0.248044D-01 -0.230260D-04
     10  0.109507D-02 -0.366151D-02 -0.366141D-02  0.258837D-01  0.269238D-02
     11 -0.136823D-02  0.366801D-02  0.366834D-02 -0.248044D-01  0.944114D-03
     12 -0.366136D-02  0.109506D-02 -0.366150D-02  0.258836D-01 -0.181514D-02
     13 -0.366152D-02 -0.366136D-02  0.109515D-02  0.258837D-01 -0.181413D-02
     14  0.552089D-03  0.793053D-04  0.787912D-04  0.145804D-01 -0.514139D-02
     15  0.792839D-04  0.788053D-04  0.552069D-03  0.145806D-01 -0.419311D-02
     16  0.787922D-04  0.552059D-03  0.793187D-04  0.145805D-01 -0.419265D-02
     17 -0.325720D-03 -0.109103D-03 -0.325573D-03 -0.156117D-01  0.714998D-02
     18 -0.325575D-03 -0.325719D-03 -0.109091D-03 -0.156117D-01  0.715459D-02
     19 -0.109094D-03 -0.325574D-03 -0.325741D-03 -0.156116D-01  0.179257D-03
     20  0.000000D+00 -0.291179D-02  0.291185D-02  0.000000D+00  0.328002D-05
     21  0.157378D-04 -0.294290D-02  0.292733D-02  0.000000D+00  0.274190D-02
     22 -0.153887D-04 -0.292742D-02  0.294295D-02  0.000000D+00 -0.274152D-02
     23  0.292732D-02  0.157315D-04 -0.294294D-02  0.000000D+00  0.479958D-03
     24  0.294296D-02 -0.153820D-04 -0.292746D-02  0.000000D+00  0.321858D-02
     25  0.291184D-02  0.000000D+00 -0.291184D-02  0.000000D+00 -0.226484D-02
     26 -0.292743D-02  0.294295D-02 -0.153602D-04  0.000000D+00 -0.474257D-03
     27 -0.291179D-02  0.291184D-02  0.000000D+00  0.000000D+00  0.226436D-02
     28 -0.294292D-02  0.292732D-02  0.157392D-04  0.000000D+00 -0.321906D-02
                6             7             8             9            10 
      6  0.406008D+00
      7  0.239680D-02  0.406008D+00
      8  0.944114D-03 -0.230230D-04  0.500006D-01
      9 -0.232501D-04  0.944109D-03  0.114420D-01  0.500006D-01
     10 -0.181515D-02 -0.181412D-02 -0.433816D-01 -0.433793D-01  0.125795D+00
     11 -0.230396D-04 -0.232568D-04  0.114420D-01  0.114420D-01  0.107050D-01
     12 -0.181409D-02  0.269236D-02 -0.433793D-01  0.107050D-01 -0.232149D-01
     13  0.269235D-02 -0.181513D-02  0.107050D-01 -0.433816D-01 -0.232149D-01
     14 -0.419271D-02 -0.419311D-02 -0.376511D-02 -0.376503D-02  0.162206D-01
     15 -0.514139D-02 -0.419265D-02  0.327462D-02 -0.376510D-02 -0.588941D-02
     16 -0.419310D-02 -0.514139D-02 -0.376502D-02  0.327462D-02 -0.589046D-02
     17  0.715460D-02  0.179262D-03  0.609072D-03  0.333849D-02 -0.442548D-02
     18  0.179265D-03  0.714998D-02  0.333850D-02  0.608910D-03 -0.442490D-02
     19  0.715001D-02  0.715459D-02  0.608907D-03  0.609073D-03  0.409563D-02
     20 -0.226485D-02  0.226436D-02 -0.550070D-02  0.549964D-02  0.124086D-05
     21  0.479924D-03 -0.321905D-02 -0.505990D-02  0.461819D-02  0.140758D-02
     22  0.321859D-02 -0.474254D-03 -0.461925D-02  0.505899D-02 -0.140510D-02
     23 -0.321904D-02  0.274190D-02  0.461818D-02  0.440863D-03  0.692773D-02
     24 -0.474267D-03 -0.274151D-02  0.505898D-02 -0.440588D-03  0.833407D-02
     25  0.226440D-02  0.328212D-05  0.549963D-02  0.000000D+00  0.552139D-02
     26 -0.274151D-02  0.321857D-02 -0.440572D-03 -0.461925D-02 -0.692809D-02
     27  0.325945D-05 -0.226484D-02  0.000000D+00 -0.550070D-02 -0.552175D-02
     28  0.274192D-02  0.479951D-03  0.440871D-03 -0.505989D-02 -0.833443D-02
               11            12            13            14            15 
     11  0.500006D-01
     12 -0.433816D-01  0.125795D+00
     13 -0.433793D-01 -0.232148D-01  0.125795D+00
     14  0.327461D-02 -0.588941D-02 -0.589047D-02  0.957810D-01
     15 -0.376503D-02 -0.589049D-02  0.162206D-01 -0.175565D-01  0.957810D-01
     16 -0.376510D-02  0.162206D-01 -0.588945D-02 -0.175564D-01 -0.175565D-01
     17  0.608906D-03  0.409563D-02 -0.442488D-02 -0.388850D-01 -0.388856D-01
     18  0.609072D-03 -0.442547D-02  0.409563D-02 -0.388856D-01  0.128119D-01
     19  0.333850D-02 -0.442490D-02 -0.442546D-02  0.128119D-01 -0.388850D-01
     20  0.000000D+00 -0.552172D-02  0.552135D-02  0.000000D+00 -0.238542D-02
     21  0.440868D-03 -0.833442D-02  0.692772D-02  0.380764D-02  0.142206D-02
     22 -0.440570D-03 -0.692808D-02  0.833405D-02 -0.380809D-02  0.523033D-02
     23 -0.505990D-02  0.140758D-02 -0.833442D-02  0.142206D-02 -0.523025D-02
     24 -0.461926D-02 -0.140511D-02 -0.692805D-02  0.523031D-02 -0.142277D-02
     25 -0.550070D-02  0.122239D-05 -0.552172D-02 -0.238542D-02  0.238550D-02
     26  0.505899D-02  0.833407D-02 -0.140511D-02 -0.142276D-02 -0.380810D-02
     27  0.549963D-02  0.552138D-02  0.126270D-05  0.238549D-02  0.000000D+00
     28  0.461819D-02  0.692771D-02  0.140759D-02 -0.523024D-02  0.380765D-02
               16            17            18            19            20 
     16  0.957810D-01
     17  0.128119D-01  0.516328D-01
     18 -0.388850D-01  0.896001D-02  0.516328D-01
     19 -0.388856D-01  0.896001D-02  0.896001D-02  0.516328D-01
     20  0.238549D-02 -0.690063D-02  0.690120D-02  0.000000D+00  0.136547D-01
     21 -0.523026D-02  0.581817D-02  0.541597D-03 -0.635917D-02  0.325057D-02
     22 -0.142277D-02 -0.541446D-03 -0.581759D-02  0.635961D-02  0.325064D-02
     23  0.380766D-02 -0.635918D-02  0.581816D-02  0.541595D-03  0.387577D-02
     24 -0.380809D-02  0.635962D-02 -0.541442D-03 -0.581759D-02 -0.652837D-02
     25  0.000000D+00  0.000000D+00 -0.690063D-02  0.690119D-02 -0.652831D-02
     26  0.523032D-02 -0.581759D-02  0.635962D-02 -0.541438D-03  0.387583D-02
     27 -0.238543D-02  0.690121D-02  0.000000D+00 -0.690063D-02 -0.652832D-02
     28  0.142206D-02  0.541593D-03 -0.635918D-02  0.581816D-02 -0.652825D-02
               21            22            23            24            25 
     21  0.142144D-01
     22  0.353048D-02  0.142145D-01
     23 -0.680816D-02 -0.708805D-02  0.142144D-01
     24  0.415567D-02 -0.680821D-02  0.353047D-02  0.142145D-01
     25 -0.652825D-02  0.387583D-02  0.325057D-02  0.325063D-02  0.136547D-01
     26 -0.708805D-02 -0.680822D-02  0.415567D-02 -0.680822D-02 -0.652838D-02
     27  0.387577D-02 -0.652838D-02 -0.652826D-02  0.387582D-02 -0.652832D-02
     28 -0.680815D-02  0.415566D-02 -0.680816D-02 -0.708805D-02  0.387576D-02
               26            27            28 
     26  0.142145D-01
     27  0.325064D-02  0.136547D-01
     28  0.353047D-02  0.325058D-02  0.142144D-01
 Leave Link  716 at Thu Feb 26 02:45:15 2015, MaxMem= 1073741824 cpu:       0.1
 (Enter /apps/gaussian/g09_c01/g09/l9999.exe)
 1\1\GINC-CX1-1-4-4\Freq\RPBEPBE\Aug-CC-pVQZ\C1H6N1(1+)\JMF02\26-Feb-20
 15\0\\#p opt(VeryTight,CalcAll,Raman) Integral(Grid=UltraFine) PBEPBE/
 AUG-cc-pVQZ\\Autjob by noodles.sh | Great noodly basis sets\\1,1\C,-0.
 0000000526,0.0000000526,-0.7991125063\H,-0.0961404413,-1.0332522395,-1
 .1437370941\H,-0.8467525918,0.5998862176,-1.1437370941\H,0.9428928752,
 0.4333661798,-1.1437370941\N,-0.0000000526,0.0000000526,0.7116676716\H
 ,0.0888049768,0.9542277743,1.0885183559\H,-0.8707880153,-0.4002063967,
 1.0885183559\H,0.7819828806,-0.5540212196,1.0885183559\\Version=EM64L-
 G09RevC.01\State=1-A\HF=-96.1271803\RMSD=3.275e-09\RMSF=2.566e-08\Zero
 Point=0.077153\Thermal=0.0806503\Dipole=0.,0.,0.8560316\DipoleDeriv=0.
 0789274,0.0000012,0.0000037,-0.0000003,0.0789255,0.0000031,0.0000006,0
 .,0.4867264,0.1207765,-0.0075274,0.0011671,-0.0075271,0.0405689,0.0125
 493,0.0031705,0.0340749,0.055524,0.0671395,0.0384944,0.0102844,0.03849
 39,0.0942049,-0.0072859,0.0279246,-0.0197836,0.0555235,0.0541004,-0.03
 09675,-0.0114534,-0.0309666,0.1072433,-0.0052646,-0.0310953,-0.0142915
 ,0.0555237,-0.1213979,0.0000016,0.0000029,0.0000018,-0.1213982,0.00000
 1,-0.000002,0.0000016,-0.3006606,0.2410942,0.0048289,0.0037071,0.00482
 98,0.2925417,0.039829,0.0028495,0.0306126,0.2157872,0.2838626,0.019862
 1,-0.0363477,0.0198629,0.249774,-0.0167046,-0.0279357,-0.0128385,0.215
 7879,0.2754981,-0.0246929,0.0326391,-0.0246928,0.2581395,-0.0231253,0.
 025087,-0.0177748,0.2157875\Polar=19.8197422,0.0000037,19.8197157,0.00
 00315,-0.0000027,23.0420609\PolarDeriv=-0.8814284,-3.0985343,0.8814185
 ,2.2424784,-0.002385,0.0012274,-3.0945197,0.8843821,3.0962005,0.001480
 8,2.2435098,-0.0015401,2.4656679,0.0004976,2.4653836,-0.0016417,0.0003
 348,-2.820812,-0.2073857,-0.6122784,-0.4520405,-0.8297213,-0.1107614,-
 0.2296762,-1.0750837,-0.4196899,-6.0932665,-0.1118926,-2.0395023,-2.46
 92954,-0.8030783,-0.0841252,-1.6861951,-0.1364282,-1.461005,-1.5582498
 ,-3.9454778,1.858833,-1.9324731,-1.6381004,0.5781796,-2.0251245,2.1190
 389,-1.54952,2.0375356,0.5774901,-1.2293016,1.4338802,-1.3934012,0.424
 576,-1.0971495,-1.196264,0.8480388,-1.5575938,4.9644309,1.6014006,1.57
 28223,-1.8349282,-0.4658511,2.2539454,1.8002726,1.1549008,1.2096738,-0
 .4662,-1.0348719,1.0365751,-1.5385807,-0.3411133,-0.9516543,1.3337161,
 0.612988,-1.5577845,0.6135007,2.1517574,-0.6125669,-2.2962506,0.001716
 2,-0.0002086,2.1510813,-0.6128642,-2.1518113,-0.0007348,-2.2973427,0.0
 009784,-1.8617559,0.0005042,-1.8626838,0.000601,-0.0002969,1.2296624,0
 .1986269,0.6444089,0.3226803,0.7888184,0.1242265,0.2394316,0.892553,0.
 2997528,4.7167747,0.1248276,2.1162426,2.5752104,0.5816299,0.0857065,1.
 5063116,0.1446902,1.5564901,2.0882288,-3.9076119,-1.1699726,-1.2116656
 ,1.891391,0.5120519,-2.3500645,-1.2736808,-0.9852295,-1.0790179,0.5123
 373,1.012903,-1.0805797,1.3501675,0.3568041,0.7379623,-1.4204398,-0.65
 28696,2.0886721,3.1653309,-1.3756097,1.4318638,1.6763366,-0.637188,2.1
 104111,-1.5196278,1.2282616,-1.7362712,-0.6373279,1.2283881,-1.4952175
 ,1.1993214,-0.4428477,0.8880555,1.2757459,-0.9036946,2.0880378\HyperPo
 lar=0.4322858,1.514873,-0.4329935,-1.5125118,-2.2590349,0.0001586,-2.2
 589906,0.0003863,0.0000731,11.9915648\PG=C03 [C3(C1N1),X(H6)]\NImag=0\
 \0.59612822,-0.00000033,0.59612812,-0.00000024,-0.00000016,0.39445815,
 -0.04865010,-0.02306930,-0.00750102,0.04551195,-0.02306943,-0.29444566
 ,-0.08058700,0.02454618,0.30703951,-0.00618086,-0.06639715,-0.06804341
 ,0.00770230,0.08275128,0.08275387,-0.21301811,0.11796739,-0.06603988,0
 .00369479,-0.00332242,0.00244653,0.22040001,0.11796732,-0.13007761,0.0
 4678960,0.02177465,-0.01213875,0.00918214,-0.12551785,0.13215145,-0.05
 441130,0.03855143,-0.06804349,0.00856158,-0.00412262,0.00456624,0.0678
 1356,-0.04804602,0.08275387,-0.25297529,-0.09489765,0.07354102,-0.0001
 9032,0.00107936,-0.00071050,-0.01617041,-0.01030547,0.00672870,0.26291
 524,-0.09489800,-0.09012024,0.03379741,-0.02401771,-0.00825364,0.00947
 586,0.01479160,0.00772645,-0.00670983,0.10097167,0.08963622,0.06059221
 ,0.02784577,-0.06804348,-0.00917524,-0.00247231,0.00456624,-0.00785109
 ,-0.00535324,0.00456624,-0.07551586,-0.03470525,0.08275387,-0.08987903
 ,-0.00000041,0.00000019,-0.00100403,0.00065337,-0.00323879,0.00365135,
 -0.00334102,-0.02853077,0.00478295,0.00268791,0.03176956,0.68469491,0.
 00000038,-0.08987877,0.00000052,0.00065321,0.00595751,-0.03481442,-0.0
 0334123,0.00130216,0.02021208,0.00268772,0.00017056,0.01460230,-0.0000
 0024,0.68469448,0.00000025,0.00000017,-0.15045419,0.00033303,0.0035814
 9,-0.02000236,0.00293518,-0.00207920,-0.02000231,-0.00326829,-0.001502
 36,-0.02000233,-0.00000012,-0.00000026,0.48539593,-0.00001311,0.000527
 88,-0.00021481,0.00037157,0.00007009,0.00015152,-0.00019312,-0.0005100
 0,-0.00069799,-0.00006217,0.00065079,0.00079689,-0.06082513,-0.0262631
 0,-0.00965648,0.05711224,0.00052778,0.00560915,-0.00231118,0.00007004,
 0.00111797,0.00162757,-0.00004589,0.00068764,0.00060039,0.00018669,0.0
 0055687,0.00046105,-0.02626296,-0.34067234,-0.10377527,0.02852180,0.36
 102116,-0.00298984,-0.03213279,-0.01329123,0.00020469,0.00220046,-0.00
 625702,-0.00076051,0.00010044,0.00120791,0.00076579,-0.00004121,0.0012
 0855,-0.01027197,-0.11039460,-0.09164489,0.01058293,0.11374001,0.09878
 533,0.00466074,0.00217065,0.00210882,0.00022674,0.00028830,-0.00017095
 ,0.00076475,0.00029073,-0.00079773,0.00099204,0.00028819,-0.00148528,-
 0.29345503,-0.10804579,0.09470036,-0.00079091,-0.00002125,-0.00045215,
 0.30974453,0.00217060,0.00093533,0.00096947,0.00075241,0.00026778,-0.0
 0090467,-0.00017337,-0.00027005,0.00045960,0.00028815,0.00049749,-0.00
 068256,-0.10804579,-0.10804238,0.04352491,-0.03062873,-0.01156446,0.01
 342110,0.11733553,0.10838887,0.02932269,0.01347710,-0.01329117,0.00029
 328,-0.00070884,0.00120791,-0.00034721,0.00068380,0.00120855,-0.002008
 00,-0.00092296,-0.00625702,0.10074052,0.04630142,-0.09164493,-0.012811
 14,-0.00402355,0.00499567,-0.10379320,-0.04770492,0.09878533,0.0037464
 8,-0.00269843,-0.00189410,0.00003947,-0.00024537,0.00000084,0.00087069
 ,-0.00035821,0.00133375,0.00070816,-0.00047447,0.00086895,-0.24796605,
 0.13430890,-0.08504386,0.00440076,-0.00297616,0.00292107,-0.02214290,0
 .01830115,-0.01139694,0.26034333,-0.00269846,0.00184958,0.00134151,-0.
 00070947,0.00045523,-0.00092065,-0.00035826,0.00061884,-0.00094501,-0.
 00001035,-0.00021364,0.00030429,0.13430905,-0.15353137,0.06025048,0.02
 763132,-0.01675612,0.01310655,-0.01230633,0.00978753,-0.00710212,-0.14
 585732,0.15779007,-0.02633291,0.01865564,-0.01329117,-0.00041858,-0.00
 064259,0.00120855,0.00180331,-0.00127750,-0.00625702,0.00046724,0.0006
 0840,0.00120791,-0.09046858,0.06409310,-0.09164494,0.01184909,-0.00631
 898,0.00499567,0.00989007,-0.00908299,0.00499567,0.09321027,-0.0660350
 9,0.09878533\\0.,0.,0.00000002,-0.00000002,0.00000001,0.,0.00000002,0.
 ,0.,0.,-0.00000002,0.,0.,0.,0.00000008,0.00000001,-0.00000003,-0.00000
 003,0.00000002,0.00000003,-0.00000003,-0.00000004,0.,-0.00000003\\\@


 SI MONUMENTUM REQUIRIS, CIRCUMSPICE
     -- FROM SIR CHRISTOPHER WREN'S TOMBSTONE
 Job cpu time:  0 days 14 hours 18 minutes 39.6 seconds.
 File lengths (MBytes):  RWF=    161 Int=      0 D2E=      0 Chk=     13 Scr=      1
 Normal termination of Gaussian 09 at Thu Feb 26 02:45:15 2015.
