 Entering Gaussian System, Link 0=g03
 Input=MA_PBE1PBE_6-31gs.com
 Output=MA_PBE1PBE_6-31gs.log
 Initial command:
 /apps/gaussian/g09_c01/g09/l1.exe /tmp/pbs.8910299.cx1b/Gau-11106.inp -scrdir=/tmp/pbs.8910299.cx1b/
 Entering Link 1 = /apps/gaussian/g09_c01/g09/l1.exe PID=     11113.
  
 Copyright (c) 1988,1990,1992,1993,1995,1998,2003,2009,2011,
            Gaussian, Inc.  All Rights Reserved.
  
 This is part of the Gaussian(R) 09 program.  It is based on
 the Gaussian(R) 03 system (copyright 2003, Gaussian, Inc.),
 the Gaussian(R) 98 system (copyright 1998, Gaussian, Inc.),
 the Gaussian(R) 94 system (copyright 1995, Gaussian, Inc.),
 the Gaussian 92(TM) system (copyright 1992, Gaussian, Inc.),
 the Gaussian 90(TM) system (copyright 1990, Gaussian, Inc.),
 the Gaussian 88(TM) system (copyright 1988, Gaussian, Inc.),
 the Gaussian 86(TM) system (copyright 1986, Carnegie Mellon
 University), and the Gaussian 82(TM) system (copyright 1983,
 Carnegie Mellon University). Gaussian is a federally registered
 trademark of Gaussian, Inc.
  
 This software contains proprietary and confidential information,
 including trade secrets, belonging to Gaussian, Inc.
  
 This software is provided under written license and may be
 used, copied, transmitted, or stored only in accord with that
 written license.
  
 The following legend is applicable only to US Government
 contracts under FAR:
  
                    RESTRICTED RIGHTS LEGEND
  
 Use, reproduction and disclosure by the US Government is
 subject to restrictions as set forth in subparagraphs (a)
 and (c) of the Commercial Computer Software - Restricted
 Rights clause in FAR 52.227-19.
  
 Gaussian, Inc.
 340 Quinnipiac St., Bldg. 40, Wallingford CT 06492
  
  
 ---------------------------------------------------------------
 Warning -- This program may not be used in any manner that
 competes with the business of Gaussian, Inc. or will provide
 assistance to any competitor of Gaussian, Inc.  The licensee
 of this program is prohibited from giving any competitor of
 Gaussian, Inc. access to this program.  By using this program,
 the user acknowledges that Gaussian, Inc. is engaged in the
 business of creating and licensing software in the field of
 computational chemistry and represents and warrants to the
 licensee that it is not a competitor of Gaussian, Inc. and that
 it will not use this program in any manner prohibited above.
 ---------------------------------------------------------------
  

 Cite this work as:
 Gaussian 09, Revision C.01,
 M. J. Frisch, G. W. Trucks, H. B. Schlegel, G. E. Scuseria, 
 M. A. Robb, J. R. Cheeseman, G. Scalmani, V. Barone, B. Mennucci, 
 G. A. Petersson, H. Nakatsuji, M. Caricato, X. Li, H. P. Hratchian, 
 A. F. Izmaylov, J. Bloino, G. Zheng, J. L. Sonnenberg, M. Hada, 
 M. Ehara, K. Toyota, R. Fukuda, J. Hasegawa, M. Ishida, T. Nakajima, 
 Y. Honda, O. Kitao, H. Nakai, T. Vreven, J. A. Montgomery, Jr., 
 J. E. Peralta, F. Ogliaro, M. Bearpark, J. J. Heyd, E. Brothers, 
 K. N. Kudin, V. N. Staroverov, T. Keith, R. Kobayashi, J. Normand, 
 K. Raghavachari, A. Rendell, J. C. Burant, S. S. Iyengar, J. Tomasi, 
 M. Cossi, N. Rega, J. M. Millam, M. Klene, J. E. Knox, J. B. Cross, 
 V. Bakken, C. Adamo, J. Jaramillo, R. Gomperts, R. E. Stratmann, 
 O. Yazyev, A. J. Austin, R. Cammi, C. Pomelli, J. W. Ochterski, 
 R. L. Martin, K. Morokuma, V. G. Zakrzewski, G. A. Voth, 
 P. Salvador, J. J. Dannenberg, S. Dapprich, A. D. Daniels, 
 O. Farkas, J. B. Foresman, J. V. Ortiz, J. Cioslowski, 
 and D. J. Fox, Gaussian, Inc., Wallingford CT, 2010.
 
 ******************************************
 Gaussian 09:  EM64L-G09RevC.01 23-Sep-2011
                26-Feb-2015 
 ******************************************
 %Chk=MA_PBE1PBE_6-31gs.chk
 %Mem=8Gb
 %nproc=8
 Will use up to    8 processors via shared memory.
 ----------------------------------------------------------------------
 #p opt(VeryTight,CalcAll,Raman) Integral(Grid=UltraFine) PBE1PBE/6-31g
 *
 ----------------------------------------------------------------------
 1/7=1,10=4,14=-1,18=20,19=15,26=3,38=1/1,3;
 2/9=110,12=2,17=6,18=5,40=1/2;
 3/5=1,6=6,7=1,11=2,16=1,25=1,30=1,71=2,74=-13,75=-5/1,2,3;
 4//1;
 5/5=2,38=5/2;
 8/6=4,10=90,11=11/1;
 10/13=10,15=4/2;
 11/6=3,8=1,9=11,15=111,16=1/1,2,10;
 10/6=1/2;
 6/7=2,8=2,9=2,10=2,18=1,28=1/1;
 7/10=1,25=1/1,2,3,16;
 1/7=1,10=4,14=-1,18=20,19=15/3(3);
 2/9=110/2;
 7/8=1,9=1,25=1,44=-1/16;
 99//99;
 2/9=110/2;
 3/5=1,6=6,7=1,11=2,16=1,25=1,30=1,71=2,74=-13,75=-5/1,2,3;
 4/5=5,16=3/1;
 5/5=2,38=5/2;
 8/6=4,10=90,11=11/1;
 10/13=10,15=4/2;
 11/6=3,8=1,9=11,15=111,16=1/1,2,10;
 10/6=1/2;
 7/10=1,25=1/1,2,3,16;
 1/7=1,10=4,14=-1,18=20,19=15/3(-9);
 2/9=110/2;
 6/7=2,8=2,9=2,10=2,18=1,19=2,28=1/1;
 7/8=1,9=1,25=1,44=-1/16;
 99//99;
 Leave Link    1 at Thu Feb 26 00:47:37 2015, MaxMem= 1073741824 cpu:       0.3
 (Enter /apps/gaussian/g09_c01/g09/l101.exe)
 ----------------------------------------------
 Autjob by noodles.sh | Great noodly basis sets
 ----------------------------------------------
 Charge =  1 Multiplicity = 1
 Symbolic Z-Matrix:
 C                     0.        0.       -0.80446 
 H                    -0.09587  -1.03096  -1.1445 
 H                    -0.8449    0.59851  -1.1445 
 H                     0.94078   0.43245  -1.1445 
 N                     0.        0.        0.71256 
 H                     0.08865   0.95193   1.09076 
 H                    -0.86872  -0.39919   1.09076 
 H                     0.78007  -0.55274   1.09076 
 
 NAtoms=      8 NQM=        0 NQMF=       0 NMMI=      8 NMMIF=      0
                NMic=       0 NMicF=      0.
                    Isotopes and Nuclear Properties:
 (Nuclear quadrupole moments (NQMom) in fm**2, nuclear magnetic moments (NMagM)
  in nuclear magnetons)

  Atom         1           2           3           4           5           6           7           8
 IAtWgt=          12           1           1           1          14           1           1           1
 AtmWgt=  12.0000000   1.0078250   1.0078250   1.0078250  14.0030740   1.0078250   1.0078250   1.0078250
 NucSpn=           0           1           1           1           2           1           1           1
 AtZEff=   0.0000000   0.0000000   0.0000000   0.0000000   0.0000000   0.0000000   0.0000000   0.0000000
 NQMom=    0.0000000   0.0000000   0.0000000   0.0000000   2.0440000   0.0000000   0.0000000   0.0000000
 NMagM=    0.0000000   2.7928460   2.7928460   2.7928460   0.4037610   2.7928460   2.7928460   2.7928460
 Leave Link  101 at Thu Feb 26 00:47:38 2015, MaxMem= 1073741824 cpu:       0.9
 (Enter /apps/gaussian/g09_c01/g09/l103.exe)

 GradGradGradGradGradGradGradGradGradGradGradGradGradGradGradGradGradGrad
 Berny optimization.
 Initialization pass.
                           ----------------------------
                           !    Initial Parameters    !
                           ! (Angstroms and Degrees)  !
 --------------------------                            --------------------------
 ! Name  Definition              Value          Derivative Info.                !
 --------------------------------------------------------------------------------
 ! R1    R(1,2)                  1.0898         calculate D2E/DX2 analytically  !
 ! R2    R(1,3)                  1.0898         calculate D2E/DX2 analytically  !
 ! R3    R(1,4)                  1.0898         calculate D2E/DX2 analytically  !
 ! R4    R(1,5)                  1.517          calculate D2E/DX2 analytically  !
 ! R5    R(5,6)                  1.0281         calculate D2E/DX2 analytically  !
 ! R6    R(5,7)                  1.0281         calculate D2E/DX2 analytically  !
 ! R7    R(5,8)                  1.0281         calculate D2E/DX2 analytically  !
 ! A1    A(2,1,3)              110.7303         calculate D2E/DX2 analytically  !
 ! A2    A(2,1,4)              110.7304         calculate D2E/DX2 analytically  !
 ! A3    A(2,1,5)              108.1807         calculate D2E/DX2 analytically  !
 ! A4    A(3,1,4)              110.7303         calculate D2E/DX2 analytically  !
 ! A5    A(3,1,5)              108.1807         calculate D2E/DX2 analytically  !
 ! A6    A(4,1,5)              108.1807         calculate D2E/DX2 analytically  !
 ! A7    A(1,5,6)              111.5829         calculate D2E/DX2 analytically  !
 ! A8    A(1,5,7)              111.583          calculate D2E/DX2 analytically  !
 ! A9    A(1,5,8)              111.583          calculate D2E/DX2 analytically  !
 ! A10   A(6,5,7)              107.2794         calculate D2E/DX2 analytically  !
 ! A11   A(6,5,8)              107.2794         calculate D2E/DX2 analytically  !
 ! A12   A(7,5,8)              107.2794         calculate D2E/DX2 analytically  !
 ! D1    D(2,1,5,6)            179.9926         calculate D2E/DX2 analytically  !
 ! D2    D(2,1,5,7)            -60.0075         calculate D2E/DX2 analytically  !
 ! D3    D(2,1,5,8)             59.9926         calculate D2E/DX2 analytically  !
 ! D4    D(3,1,5,6)            -60.0075         calculate D2E/DX2 analytically  !
 ! D5    D(3,1,5,7)             59.9925         calculate D2E/DX2 analytically  !
 ! D6    D(3,1,5,8)            179.9926         calculate D2E/DX2 analytically  !
 ! D7    D(4,1,5,6)             59.9925         calculate D2E/DX2 analytically  !
 ! D8    D(4,1,5,7)            179.9925         calculate D2E/DX2 analytically  !
 ! D9    D(4,1,5,8)            -60.0075         calculate D2E/DX2 analytically  !
 --------------------------------------------------------------------------------
 Trust Radius=3.00D-01 FncErr=1.00D-07 GrdErr=1.00D-06
 Number of steps in this run=     38 maximum allowed number of steps=    100.
 GradGradGradGradGradGradGradGradGradGradGradGradGradGradGradGradGradGrad

 Leave Link  103 at Thu Feb 26 00:47:38 2015, MaxMem= 1073741824 cpu:       0.0
 (Enter /apps/gaussian/g09_c01/g09/l202.exe)
                          Input orientation:                          
 ---------------------------------------------------------------------
 Center     Atomic      Atomic             Coordinates (Angstroms)
 Number     Number       Type             X           Y           Z
 ---------------------------------------------------------------------
      1          6           0        0.000000    0.000000   -0.804455
      2          1           0       -0.095874   -1.030964   -1.144495
      3          1           0       -0.844904    0.598511   -1.144495
      4          1           0        0.940777    0.432453   -1.144495
      5          7           0        0.000000    0.000000    0.712562
      6          1           0        0.088649    0.951929    1.090759
      7          1           0       -0.868719   -0.399192    1.090759
      8          1           0        0.780070   -0.552736    1.090759
 ---------------------------------------------------------------------
                    Distance matrix (angstroms):
                    1          2          3          4          5
     1  C    0.000000
     2  H    1.089819   0.000000
     3  H    1.089819   1.793386   0.000000
     4  H    1.089818   1.793386   1.793386   0.000000
     5  N    1.517017   2.126203   2.126203   2.126203   0.000000
     6  H    2.122702   2.993706   2.448017   2.447925   1.028134
     7  H    2.122702   2.448017   2.447925   2.993705   1.028134
     8  H    2.122702   2.447926   2.993705   2.448016   1.028134
                    6          7          8
     6  H    0.000000
     7  H    1.655923   0.000000
     8  H    1.655923   1.655923   0.000000
 Stoichiometry    CH6N(1+)
 Framework group  C3[C3(CN),X(H6)]
 Deg. of freedom     6
 Full point group                 C3      NOp   3
 Largest Abelian subgroup         C1      NOp   1
 Largest concise Abelian subgroup C1      NOp   1
                         Standard orientation:                         
 ---------------------------------------------------------------------
 Center     Atomic      Atomic             Coordinates (Angstroms)
 Number     Number       Type             X           Y           Z
 ---------------------------------------------------------------------
      1          6           0        0.000000    0.000000   -0.804455
      2          1           0        1.030964   -0.095874   -1.144495
      3          1           0       -0.598511   -0.844904   -1.144495
      4          1           0       -0.432453    0.940778   -1.144495
      5          7           0        0.000000    0.000000    0.712562
      6          1           0       -0.951929    0.088649    1.090759
      7          1           0        0.399192   -0.868719    1.090759
      8          1           0        0.552737    0.780070    1.090759
 ---------------------------------------------------------------------
 Rotational constants (GHZ):     84.1605103     19.8694623     19.8694623
 Leave Link  202 at Thu Feb 26 00:47:38 2015, MaxMem= 1073741824 cpu:       0.0
 (Enter /apps/gaussian/g09_c01/g09/l301.exe)
 Standard basis: 6-31G(d) (6D, 7F)
 Ernie: Thresh=  0.10000D-02 Tol=  0.10000D-05 Strict=F.
 There are    42 symmetry adapted basis functions of A   symmetry.
 Integral buffers will be    131072 words long.
 Raffenetti 2 integral format.
 Two-electron integral symmetry is turned on.
    42 basis functions,    80 primitive gaussians,    42 cartesian basis functions
     9 alpha electrons        9 beta electrons
       nuclear repulsion energy        47.5846100594 Hartrees.
 IExCor= 1009 DFT=T Ex+Corr=PBE1PBE ExCW=0 ScaHFX=  0.250000
 ScaDFX=  0.750000  0.750000  1.000000  1.000000 ScalE2=  1.000000  1.000000
 IRadAn=      5 IRanWt=     -1 IRanGd=            0 ICorTp=0
 NAtoms=    8 NActive=    8 NUniq=    4 SFac= 4.00D+00 NAtFMM=   60 NAOKFM=F Big=F
 Leave Link  301 at Thu Feb 26 00:47:38 2015, MaxMem= 1073741824 cpu:       0.3
 (Enter /apps/gaussian/g09_c01/g09/l302.exe)
 NPDir=0 NMtPBC=     1 NCelOv=     1 NCel=       1 NClECP=     1 NCelD=      1
         NCelK=      1 NCelE2=     1 NClLst=     1 CellRange=     0.0.
 One-electron integrals computed using PRISM.
 NBasis=    42 RedAO= T  NBF=    42
 NBsUse=    42 1.00D-06 NBFU=    42
 Precomputing XC quadrature grid using
 IXCGrd= 2 IRadAn=           5 IRanWt=          -1 IRanGd=           0 AccXCQ= 0.00D+00.
 NRdTot=     652 NPtTot=      172830 NUsed=      177511 NTot=      177543
 NSgBfM=    42    42    42    42    42 NAtAll=     8     8.
 Leave Link  302 at Thu Feb 26 00:47:38 2015, MaxMem= 1073741824 cpu:       1.0
 (Enter /apps/gaussian/g09_c01/g09/l303.exe)
 DipDrv:  MaxL=1.
 Leave Link  303 at Thu Feb 26 00:47:38 2015, MaxMem= 1073741824 cpu:       0.1
 (Enter /apps/gaussian/g09_c01/g09/l401.exe)
 Harris functional with IExCor= 1009 diagonalized for initial guess.
 ExpMin= 1.61D-01 ExpMax= 4.17D+03 ExpMxC= 6.27D+02 IAcc=3 IRadAn=         5 AccDes= 0.00D+00
 HarFok:  IExCor= 1009 AccDes= 0.00D+00 IRadAn=         5 IDoV= 1
 ScaDFX=  1.000000  1.000000  1.000000  1.000000
 FoFCou: FMM=F IPFlag=           0 FMFlag=      100000 FMFlg1=           0
         NFxFlg=           0 DoJE=T BraDBF=F KetDBF=T FulRan=T
         Omega=  0.000000  0.000000  1.000000  0.000000  0.000000 ICntrl=     500 IOpCl=  0
         NMat0=    1 NMatS0=    1 NMatT0=    0 NMatD0=    1 NMtDS0=    0 NMtDT0=    0
         I1Cent=           4 NGrid=           0.
 Petite list used in FoFCou.
 Harris En= -96.1808329715130    
 Initial guess orbital symmetries:
       Occupied  (A) (A) (A) (A) (E) (E) (A) (E) (E)
       Virtual   (A) (A) (E) (E) (A) (E) (E) (A) (E) (E) (E) (E)
                 (A) (A) (E) (E) (E) (E) (A) (A) (E) (E) (A) (A)
                 (E) (E) (E) (E) (E) (E) (A) (A) (A)
 The electronic state of the initial guess is 1-A.
 Leave Link  401 at Thu Feb 26 00:47:38 2015, MaxMem= 1073741824 cpu:       1.4
 (Enter /apps/gaussian/g09_c01/g09/l502.exe)
 Closed shell SCF:
 Requested convergence on RMS density matrix=1.00D-08 within 128 cycles.
 Requested convergence on MAX density matrix=1.00D-06.
 Requested convergence on             energy=1.00D-06.
 No special actions if energy rises.
 Using DIIS extrapolation, IDIIS=  1040.
 Integral symmetry usage will be decided dynamically.
       177426 words used for storage of precomputed grid.
 Keep R1 ints in memory in canonical form, NReq=1471782.
 IEnd=      201570 IEndB=      201570 NGot=  1073741824 MDV=  1073150517
 LenX=  1073150517 LenY=  1073148312
 Symmetry not used in FoFDir.
 MinBra= 0 MaxBra= 2 Meth= 1.
 IRaf=       0 NMat=   1 IRICut=       1 DoRegI=T DoRafI=F ISym2E= 0 JSym2E=0.
 Integral accuracy reduced to 1.0D-05 until final iterations.

 Cycle   1  Pass 0  IDiag  1:
 E= -96.0627887099526    
 DIIS: error= 2.42D-02 at cycle   1 NSaved=   1.
 NSaved= 1 IEnMin= 1 EnMin= -96.0627887099526     IErMin= 1 ErrMin= 2.42D-02
 ErrMax= 2.42D-02 EMaxC= 1.00D-01 BMatC= 3.19D-02 BMatP= 3.19D-02
 IDIUse=3 WtCom= 7.58D-01 WtEn= 2.42D-01
 Coeff-Com:  0.100D+01
 Coeff-En:   0.100D+01
 Coeff:      0.100D+01
 Gap=     0.449 Goal=   None    Shift=    0.000
 GapD=    0.449 DampG=2.000 DampE=0.500 DampFc=1.0000 IDamp=-1.
 RMSDP=6.67D-03 MaxDP=7.27D-02              OVMax= 1.03D-01

 Cycle   2  Pass 0  IDiag  1:
 E= -96.0723196611077     Delta-E=       -0.009530951155 Rises=F Damp=F
 DIIS: error= 2.29D-02 at cycle   2 NSaved=   2.
 NSaved= 2 IEnMin= 2 EnMin= -96.0723196611077     IErMin= 2 ErrMin= 2.29D-02
 ErrMax= 2.29D-02 EMaxC= 1.00D-01 BMatC= 2.15D-02 BMatP= 3.19D-02
 IDIUse=3 WtCom= 7.71D-01 WtEn= 2.29D-01
 Coeff-Com:  0.446D+00 0.554D+00
 Coeff-En:   0.394D+00 0.606D+00
 Coeff:      0.434D+00 0.566D+00
 Gap=     0.468 Goal=   None    Shift=    0.000
 RMSDP=3.12D-03 MaxDP=4.23D-02 DE=-9.53D-03 OVMax= 4.62D-02

 Cycle   3  Pass 0  IDiag  1:
 E= -96.0935413352309     Delta-E=       -0.021221674123 Rises=F Damp=F
 DIIS: error= 3.07D-03 at cycle   3 NSaved=   3.
 NSaved= 3 IEnMin= 3 EnMin= -96.0935413352309     IErMin= 3 ErrMin= 3.07D-03
 ErrMax= 3.07D-03 EMaxC= 1.00D-01 BMatC= 5.00D-04 BMatP= 2.15D-02
 IDIUse=3 WtCom= 9.69D-01 WtEn= 3.07D-02
 Coeff-Com:  0.566D-01 0.161D+00 0.782D+00
 Coeff-En:   0.000D+00 0.000D+00 0.100D+01
 Coeff:      0.549D-01 0.156D+00 0.789D+00
 Gap=     0.468 Goal=   None    Shift=    0.000
 RMSDP=4.22D-04 MaxDP=5.87D-03 DE=-2.12D-02 OVMax= 6.75D-03

 Cycle   4  Pass 0  IDiag  1:
 E= -96.0940024216657     Delta-E=       -0.000461086435 Rises=F Damp=F
 DIIS: error= 5.57D-04 at cycle   4 NSaved=   4.
 NSaved= 4 IEnMin= 4 EnMin= -96.0940024216657     IErMin= 4 ErrMin= 5.57D-04
 ErrMax= 5.57D-04 EMaxC= 1.00D-01 BMatC= 1.13D-05 BMatP= 5.00D-04
 IDIUse=3 WtCom= 9.94D-01 WtEn= 5.57D-03
 Coeff-Com:  0.259D-02 0.222D-01 0.196D+00 0.779D+00
 Coeff-En:   0.000D+00 0.000D+00 0.000D+00 0.100D+01
 Coeff:      0.258D-02 0.220D-01 0.195D+00 0.780D+00
 Gap=     0.467 Goal=   None    Shift=    0.000
 RMSDP=7.90D-05 MaxDP=8.43D-04 DE=-4.61D-04 OVMax= 1.41D-03

 Cycle   5  Pass 0  IDiag  1:
 E= -96.0940104051298     Delta-E=       -0.000007983464 Rises=F Damp=F
 DIIS: error= 2.28D-04 at cycle   5 NSaved=   5.
 NSaved= 5 IEnMin= 5 EnMin= -96.0940104051298     IErMin= 5 ErrMin= 2.28D-04
 ErrMax= 2.28D-04 EMaxC= 1.00D-01 BMatC= 2.72D-06 BMatP= 1.13D-05
 IDIUse=3 WtCom= 9.98D-01 WtEn= 2.28D-03
 Coeff-Com: -0.729D-03 0.691D-02 0.831D-01 0.420D+00 0.491D+00
 Coeff-En:   0.000D+00 0.000D+00 0.000D+00 0.387D-01 0.961D+00
 Coeff:     -0.728D-03 0.690D-02 0.829D-01 0.419D+00 0.492D+00
 Gap=     0.467 Goal=   None    Shift=    0.000
 RMSDP=2.37D-05 MaxDP=3.90D-04 DE=-7.98D-06 OVMax= 4.06D-04

 Cycle   6  Pass 0  IDiag  1:
 E= -96.0940125456899     Delta-E=       -0.000002140560 Rises=F Damp=F
 DIIS: error= 1.78D-05 at cycle   6 NSaved=   6.
 NSaved= 6 IEnMin= 6 EnMin= -96.0940125456899     IErMin= 6 ErrMin= 1.78D-05
 ErrMax= 1.78D-05 EMaxC= 1.00D-01 BMatC= 1.07D-08 BMatP= 2.72D-06
 IDIUse=1 WtCom= 1.00D+00 WtEn= 0.00D+00
 Coeff-Com: -0.192D-03 0.169D-03 0.392D-02 0.292D-01 0.795D-01 0.887D+00
 Coeff:     -0.192D-03 0.169D-03 0.392D-02 0.292D-01 0.795D-01 0.887D+00
 Gap=     0.467 Goal=   None    Shift=    0.000
 RMSDP=2.62D-06 MaxDP=3.74D-05 DE=-2.14D-06 OVMax= 5.43D-05

 Initial convergence to 1.0D-05 achieved.  Increase integral accuracy.
 Cycle   7  Pass 1  IDiag  1:
 E= -96.0940138144540     Delta-E=       -0.000001268764 Rises=F Damp=F
 DIIS: error= 2.28D-06 at cycle   1 NSaved=   1.
 NSaved= 1 IEnMin= 1 EnMin= -96.0940138144540     IErMin= 1 ErrMin= 2.28D-06
 ErrMax= 2.28D-06 EMaxC= 1.00D-01 BMatC= 1.79D-10 BMatP= 1.79D-10
 IDIUse=1 WtCom= 1.00D+00 WtEn= 0.00D+00
 Coeff-Com:  0.100D+01
 Coeff:      0.100D+01
 Gap=     0.467 Goal=   None    Shift=    0.000
 RMSDP=2.62D-06 MaxDP=3.74D-05 DE=-1.27D-06 OVMax= 5.03D-06

 Cycle   8  Pass 1  IDiag  1:
 E= -96.0940138145303     Delta-E=       -0.000000000076 Rises=F Damp=F
 DIIS: error= 1.51D-06 at cycle   2 NSaved=   2.
 NSaved= 2 IEnMin= 2 EnMin= -96.0940138145303     IErMin= 2 ErrMin= 1.51D-06
 ErrMax= 1.51D-06 EMaxC= 1.00D-01 BMatC= 1.20D-10 BMatP= 1.79D-10
 IDIUse=1 WtCom= 1.00D+00 WtEn= 0.00D+00
 Coeff-Com:  0.444D+00 0.556D+00
 Coeff:      0.444D+00 0.556D+00
 Gap=     0.467 Goal=   None    Shift=    0.000
 RMSDP=2.08D-07 MaxDP=3.41D-06 DE=-7.63D-11 OVMax= 4.08D-06

 Cycle   9  Pass 1  IDiag  1:
 E= -96.0940138146247     Delta-E=       -0.000000000094 Rises=F Damp=F
 DIIS: error= 4.21D-07 at cycle   3 NSaved=   3.
 NSaved= 3 IEnMin= 3 EnMin= -96.0940138146247     IErMin= 3 ErrMin= 4.21D-07
 ErrMax= 4.21D-07 EMaxC= 1.00D-01 BMatC= 9.43D-12 BMatP= 1.20D-10
 IDIUse=1 WtCom= 1.00D+00 WtEn= 0.00D+00
 Coeff-Com:  0.938D-01 0.250D+00 0.656D+00
 Coeff:      0.938D-01 0.250D+00 0.656D+00
 Gap=     0.467 Goal=   None    Shift=    0.000
 RMSDP=4.15D-08 MaxDP=6.90D-07 DE=-9.44D-11 OVMax= 7.12D-07

 Cycle  10  Pass 1  IDiag  1:
 E= -96.0940138146319     Delta-E=       -0.000000000007 Rises=F Damp=F
 DIIS: error= 2.31D-08 at cycle   4 NSaved=   4.
 NSaved= 4 IEnMin= 4 EnMin= -96.0940138146319     IErMin= 4 ErrMin= 2.31D-08
 ErrMax= 2.31D-08 EMaxC= 1.00D-01 BMatC= 3.17D-14 BMatP= 9.43D-12
 IDIUse=1 WtCom= 1.00D+00 WtEn= 0.00D+00
 Coeff-Com: -0.877D-02 0.474D-02 0.347D-01 0.969D+00
 Coeff:     -0.877D-02 0.474D-02 0.347D-01 0.969D+00
 Gap=     0.467 Goal=   None    Shift=    0.000
 RMSDP=5.37D-09 MaxDP=5.23D-08 DE=-7.16D-12 OVMax= 6.44D-08

 SCF Done:  E(RPBE1PBE) =  -96.0940138146     A.U. after   10 cycles
             Convg  =    0.5369D-08             -V/T =  2.0098
 KE= 9.516405422320D+01 PE=-3.126492567032D+02 EE= 7.380657860593D+01
 Leave Link  502 at Thu Feb 26 00:47:38 2015, MaxMem= 1073741824 cpu:       3.6
 (Enter /apps/gaussian/g09_c01/g09/l801.exe)
 Range of M.O.s used for correlation:     1    42
 NBasis=    42 NAE=     9 NBE=     9 NFC=     0 NFV=     0
 NROrb=     42 NOA=     9 NOB=     9 NVA=    33 NVB=    33
 Leave Link  801 at Thu Feb 26 00:47:38 2015, MaxMem= 1073741824 cpu:       0.1
 (Enter /apps/gaussian/g09_c01/g09/l1002.exe)
 Minotr:  Closed shell wavefunction.
          Direct CPHF calculation.
          Differentiating once with respect to electric field.
                with respect to dipole field.
          Electric field/nuclear overlap derivatives assumed to be zero.
          Using symmetry in CPHF.
          Requested convergence is 1.0D-08 RMS, and 1.0D-07 maximum.
          Secondary convergence is 1.0D-12 RMS, and 1.0D-12 maximum.
          NewPWx=F KeepS1=T KeepF1=T KeepIn=T MapXYZ=F SortEE=F KeepMc=T.
          MDV=    1073741756 using IRadAn=       1.
 Generate precomputed XC quadrature information.
          Keep R1 ints in memory in canonical form, NReq=1231071.
 Symmetry not used in FoFDir.
 MinBra= 0 MaxBra= 2 Meth= 1.
 IRaf=       0 NMat=   1 IRICut=       1 DoRegI=T DoRafI=F ISym2E= 0 JSym2E=0.
          Solving linear equations simultaneously, MaxMat=       0.
          There are     3 degrees of freedom in the 1st order CPHF.  IDoFFX=0.
      3 vectors produced by pass  0 Test12= 9.90D-15 3.33D-08 XBig12= 7.50D+00 1.76D+00.
 AX will form     3 AO Fock derivatives at one time.
      3 vectors produced by pass  1 Test12= 9.90D-15 3.33D-08 XBig12= 3.52D-01 2.59D-01.
      3 vectors produced by pass  2 Test12= 9.90D-15 3.33D-08 XBig12= 7.90D-02 9.39D-02.
      3 vectors produced by pass  3 Test12= 9.90D-15 3.33D-08 XBig12= 3.26D-03 2.01D-02.
      3 vectors produced by pass  4 Test12= 9.90D-15 3.33D-08 XBig12= 5.18D-04 6.34D-03.
      3 vectors produced by pass  5 Test12= 9.90D-15 3.33D-08 XBig12= 9.88D-06 1.14D-03.
      3 vectors produced by pass  6 Test12= 9.90D-15 3.33D-08 XBig12= 2.14D-07 1.54D-04.
      3 vectors produced by pass  7 Test12= 9.90D-15 3.33D-08 XBig12= 4.24D-09 2.87D-05.
      1 vectors produced by pass  8 Test12= 9.90D-15 3.33D-08 XBig12= 9.34D-12 9.80D-07.
      1 vectors produced by pass  9 Test12= 9.90D-15 3.33D-08 XBig12= 1.66D-14 5.51D-08.
 Inverted reduced A of dimension    26 with in-core refinement.
 End of Minotr Frequency-dependent properties file   721 does not exist.
 End of Minotr Frequency-dependent properties file   722 does not exist.
 Leave Link 1002 at Thu Feb 26 00:47:39 2015, MaxMem= 1073741824 cpu:       6.1
 (Enter /apps/gaussian/g09_c01/g09/l1101.exe)
 Using compressed storage, NAtomX=     8.
 Will process   9 centers per pass.
 Leave Link 1101 at Thu Feb 26 00:47:39 2015, MaxMem= 1073741824 cpu:       0.9
 (Enter /apps/gaussian/g09_c01/g09/l1102.exe)
 Symmetrizing basis deriv contribution to polar:
 IMax=3 JMax=2 DiffMx= 0.00D+00
 Leave Link 1102 at Thu Feb 26 00:47:39 2015, MaxMem= 1073741824 cpu:       0.1
 (Enter /apps/gaussian/g09_c01/g09/l1110.exe)
 Forming Gx(P) for the SCF density, NAtomX=     8.
 Integral derivatives from FoFDir/FoFCou, PRISM(SPDF).
 Do as many integral derivatives as possible in FoFDir.
 G2DrvN: MDV=    1073741656.
 G2DrvN: will do     9 centers at a time, making    1 passes doing MaxLOS=2.
 Calling FoFCou, ICntrl=  3107 FMM=F I1Cent=   0 AccDes= 0.00D+00.
 FoFCou: FMM=F IPFlag=           0 FMFlag=      100000 FMFlg1=           0
         NFxFlg=           0 DoJE=F BraDBF=F KetDBF=F FulRan=T
         Omega=  0.000000  0.000000  1.000000  0.000000  0.000000 ICntrl=    3107 IOpCl=  0
         NMat0=    1 NMatS0=    1 NMatT0=    0 NMatD0=    4 NMtDS0=    3 NMtDT0=    0
         I1Cent=           0 NGrid=           0.
 Petite list used in FoFCou.
 FoFDir/FoFCou used for L=0 through L=2.
 End of G2Drv Frequency-dependent properties file   721 does not exist.
 End of G2Drv Frequency-dependent properties file   722 does not exist.
 Leave Link 1110 at Thu Feb 26 00:47:41 2015, MaxMem= 1073741824 cpu:      12.0
 (Enter /apps/gaussian/g09_c01/g09/l1002.exe)
 Minotr:  Closed shell wavefunction.
          IDoAtm=11111111
          Direct CPHF calculation.
          Differentiating once with respect to electric field.
                with respect to dipole field.
          Differentiating once with respect to nuclear coordinates.
          Using symmetry in CPHF.
          Requested convergence is 1.0D-08 RMS, and 1.0D-07 maximum.
          Secondary convergence is 1.0D-12 RMS, and 1.0D-12 maximum.
          NewPWx=T KeepS1=F KeepF1=F KeepIn=T MapXYZ=F SortEE=F KeepMc=T.
          MDV=    1073741740 using IRadAn=       1.
 Generate precomputed XC quadrature information.
          Keep R1 ints in memory in canonical form, NReq=1231239.
 Symmetry not used in FoFDir.
 MinBra= 0 MaxBra= 2 Meth= 1.
 IRaf=       0 NMat=   1 IRICut=       1 DoRegI=T DoRafI=F ISym2E= 0 JSym2E=0.
          Solving linear equations simultaneously, MaxMat=       0.
          There are    15 degrees of freedom in the 1st order CPHF.  IDoFFX=4.
 Will reuse    3 saved solutions.
     12 vectors produced by pass  0 Test12= 1.98D-15 6.67D-09 XBig12= 7.12D-02 1.28D-01.
 AX will form    12 AO Fock derivatives at one time.
     12 vectors produced by pass  1 Test12= 1.98D-15 6.67D-09 XBig12= 9.74D-03 3.03D-02.
     12 vectors produced by pass  2 Test12= 1.98D-15 6.67D-09 XBig12= 1.13D-05 1.14D-03.
     12 vectors produced by pass  3 Test12= 1.98D-15 6.67D-09 XBig12= 6.64D-08 9.16D-05.
     12 vectors produced by pass  4 Test12= 1.98D-15 6.67D-09 XBig12= 1.12D-10 3.95D-06.
      9 vectors produced by pass  5 Test12= 1.98D-15 6.67D-09 XBig12= 8.15D-14 8.35D-08.
 Inverted reduced A of dimension    69 with in-core refinement.
 FullF1:  Do perturbations    1 to    15.
 Isotropic polarizability for W=    0.000000       17.00 Bohr**3.
 FullF1:  Do perturbations    1 to     6.
 End of Minotr Frequency-dependent properties file   721 does not exist.
 End of Minotr Frequency-dependent properties file   722 does not exist.
 Leave Link 1002 at Thu Feb 26 00:47:42 2015, MaxMem= 1073741824 cpu:      10.2
 (Enter /apps/gaussian/g09_c01/g09/l601.exe)
 Copying SCF densities to generalized density rwf, IOpCl= 0 IROHF=0.

 **********************************************************************

            Population analysis using the SCF density.

 **********************************************************************

 Orbital symmetries:
       Occupied  (A) (A) (A) (A) (E) (E) (A) (E) (E)
       Virtual   (A) (E) (E) (A) (A) (E) (E) (A) (E) (E) (E) (E)
                 (A) (E) (E) (A) (E) (E) (A) (A) (E) (E) (A) (A)
                 (E) (E) (E) (E) (E) (E) (A) (A) (A)
 The electronic state is 1-A.
 Alpha  occ. eigenvalues --  -14.75119 -10.49726  -1.25004  -0.95695  -0.82211
 Alpha  occ. eigenvalues --   -0.82211  -0.72128  -0.63854  -0.63854
 Alpha virt. eigenvalues --   -0.17121  -0.09737  -0.09737  -0.07611  -0.03758
 Alpha virt. eigenvalues --   -0.02328  -0.02328   0.31210   0.32424   0.32424
 Alpha virt. eigenvalues --    0.47657   0.47657   0.48032   0.62696   0.62696
 Alpha virt. eigenvalues --    0.63476   0.71056   0.71056   0.75213   0.86682
 Alpha virt. eigenvalues --    1.20324   1.20324   1.32541   1.68228   1.74731
 Alpha virt. eigenvalues --    1.74731   2.03779   2.03779   2.08329   2.08329
 Alpha virt. eigenvalues --    2.33792   3.51830   4.03416
          Condensed to atoms (all electrons):
              1          2          3          4          5          6
     1  C    5.182138   0.380735   0.380735   0.380735   0.179480  -0.017930
     2  H    0.380735   0.402899  -0.017790  -0.017790  -0.027886   0.002479
     3  H    0.380735  -0.017790   0.402899  -0.017790  -0.027886  -0.002146
     4  H    0.380735  -0.017790  -0.017790   0.402899  -0.027886  -0.002147
     5  N    0.179480  -0.027886  -0.027886  -0.027886   6.766587   0.303139
     6  H   -0.017930   0.002479  -0.002146  -0.002147   0.303139   0.282109
     7  H   -0.017930  -0.002146  -0.002147   0.002479   0.303139  -0.012240
     8  H   -0.017930  -0.002147   0.002479  -0.002146   0.303139  -0.012240
              7          8
     1  C   -0.017930  -0.017930
     2  H   -0.002146  -0.002147
     3  H   -0.002147   0.002479
     4  H    0.002479  -0.002146
     5  N    0.303139   0.303139
     6  H   -0.012240  -0.012240
     7  H    0.282109  -0.012240
     8  H   -0.012240   0.282109
 Mulliken atomic charges:
              1
     1  C   -0.450033
     2  H    0.281645
     3  H    0.281645
     4  H    0.281645
     5  N   -0.771828
     6  H    0.458975
     7  H    0.458975
     8  H    0.458975
 Sum of Mulliken atomic charges =   1.00000
 Mulliken charges with hydrogens summed into heavy atoms:
              1
     1  C    0.394903
     5  N    0.605097
 Sum of Mulliken charges with hydrogens summed into heavy atoms =   1.00000
 APT atomic charges:
              1
     1  C    0.222274
     2  H    0.084379
     3  H    0.084379
     4  H    0.084379
     5  N   -0.306823
     6  H    0.277136
     7  H    0.277136
     8  H    0.277137
 Sum of APT charges=   1.00000
 APT Atomic charges with hydrogens summed into heavy atoms:
              1
     1  C    0.475412
     2  H    0.000000
     3  H    0.000000
     4  H    0.000000
     5  N    0.524587
     6  H    0.000000
     7  H    0.000000
     8  H    0.000000
 Sum of APT charges=   1.00000
 Electronic spatial extent (au):  <R**2>=             94.7397
 Charge=              1.0000 electrons
 Dipole moment (field-independent basis, Debye):
    X=              0.0000    Y=              0.0000    Z=              2.2864  Tot=              2.2864
 Quadrupole moment (field-independent basis, Debye-Ang):
   XX=            -10.1208   YY=            -10.1208   ZZ=             -6.8269
   XY=              0.0000   XZ=              0.0000   YZ=              0.0000
 Traceless Quadrupole moment (field-independent basis, Debye-Ang):
   XX=             -1.0980   YY=             -1.0980   ZZ=              2.1959
   XY=              0.0000   XZ=              0.0000   YZ=              0.0000
 Octapole moment (field-independent basis, Debye-Ang**2):
  XXX=             -0.3302  YYY=             -0.0949  ZZZ=              6.0600  XYY=              0.3302
  XXY=              0.0949  XXZ=              2.6183  XZZ=              0.0000  YZZ=              0.0000
  YYZ=              2.6183  XYZ=              0.0000
 Hexadecapole moment (field-independent basis, Debye-Ang**3):
 XXXX=            -17.4199 YYYY=            -17.4199 ZZZZ=            -62.3612 XXXY=              0.0000
 XXXZ=             -2.7529 YYYX=              0.0000 YYYZ=             -0.7868 ZZZX=              0.0000
 ZZZY=              0.0000 XXYY=             -5.8066 XXZZ=            -10.6964 YYZZ=            -10.6964
 XXYZ=              0.7868 YYXZ=              2.7529 ZZXY=              0.0000
 N-N= 4.758461005939D+01 E-N=-3.126492579501D+02  KE= 9.516405422320D+01
  Exact polarizability:  16.420   0.000  16.420   0.000   0.000  18.161
 Approx polarizability:  20.325   0.000  20.325   0.000   0.000  20.503
 No NMR shielding tensors so no spin-rotation constants.
 Leave Link  601 at Thu Feb 26 00:47:42 2015, MaxMem= 1073741824 cpu:       0.9
 (Enter /apps/gaussian/g09_c01/g09/l701.exe)
 Compute integral second derivatives.
 ... and contract with generalized density number  0.
 Leave Link  701 at Thu Feb 26 00:47:42 2015, MaxMem= 1073741824 cpu:       1.2
 (Enter /apps/gaussian/g09_c01/g09/l702.exe)
 L702 exits ... SP integral derivatives will be done elsewhere.
 Leave Link  702 at Thu Feb 26 00:47:43 2015, MaxMem= 1073741824 cpu:       0.1
 (Enter /apps/gaussian/g09_c01/g09/l703.exe)
 Compute integral second derivatives, UseDBF=F ICtDFT=           0.
 Integral derivatives from FoFDir, PRISM(SPDF).
 Calling FoFJK, ICntrl=    100127 FMM=F ISym2X=1 I1Cent= 0 IOpClX= 0 NMat=1 NMatS=1 NMatT=0.
 FoFCou: FMM=F IPFlag=           0 FMFlag=      100000 FMFlg1=         800
         NFxFlg=           0 DoJE=F BraDBF=F KetDBF=F FulRan=T
         Omega=  0.000000  0.000000  1.000000  0.000000  0.000000 ICntrl=  100127 IOpCl=  0
         NMat0=    1 NMatS0=    1 NMatT0=    0 NMatD0=    1 NMtDS0=    0 NMtDT0=    0
         I1Cent=           0 NGrid=           0.
 Petite list used in FoFCou.
 Leave Link  703 at Thu Feb 26 00:47:44 2015, MaxMem= 1073741824 cpu:      10.2
 (Enter /apps/gaussian/g09_c01/g09/l716.exe)
 Dipole        =-4.78783679D-16 6.38378239D-16 8.99553905D-01
 Polarizability= 1.64201117D+01 5.57067529D-06 1.64201235D+01
                 3.04323590D-06 1.51065625D-05 1.81610080D+01
 HyperPolar    = 5.56248726D+00-1.58456637D+00-5.56255558D+00
                 1.58430001D+00-3.30959974D+00-1.71152525D-04
                -3.30987484D+00-1.34036654D-04-1.26074449D-04
                -2.04468197D-01
 ***** Axes restored to original set *****
 -------------------------------------------------------------------
 Center     Atomic                   Forces (Hartrees/Bohr)
 Number     Number              X              Y              Z
 -------------------------------------------------------------------
      1        6           0.000000000    0.000000000    0.007341318
      2        1           0.000005203    0.000059245    0.000029451
      3        1           0.000048706   -0.000034128    0.000029451
      4        1          -0.000053909   -0.000025116    0.000029451
      5        7           0.000000000    0.000000000   -0.004693788
      6        1          -0.000150730   -0.001615091   -0.000911961
      7        1           0.001474074    0.000677009   -0.000911961
      8        1          -0.001323344    0.000938081   -0.000911961
 -------------------------------------------------------------------
 Cartesian Forces:  Max     0.007341318 RMS     0.001896582
 Force constants in Cartesian coordinates: 
                1             2             3             4             5 
      1  0.652998D+00
      2  0.000000D+00  0.652998D+00
      3  0.000000D+00  0.000000D+00  0.410784D+00
      4 -0.543334D-01 -0.250648D-01 -0.804974D-02  0.498756D-01
      5 -0.250654D-01 -0.321564D+00 -0.865386D-01  0.265652D-01  0.333096D+00
      6 -0.670416D-02 -0.720661D-01 -0.730790D-01  0.820810D-02  0.882365D-01
      7 -0.233049D+00  0.128247D+00 -0.709198D-01  0.463771D-02 -0.381559D-02
      8  0.128247D+00 -0.142848D+00  0.502406D-01  0.235402D-01 -0.122839D-01
      9 -0.590591D-01  0.418391D-01 -0.730790D-01  0.957869D-02 -0.455336D-02
     10 -0.276463D+00 -0.103181D+00  0.789695D-01  0.487518D-03  0.141948D-02
     11 -0.103182D+00 -0.994339D-01  0.362980D-01 -0.259363D-01 -0.813367D-02
     12  0.657632D-01  0.302271D-01 -0.730790D-01 -0.102538D-01 -0.270894D-02
     13 -0.998113D-01 -0.191157D-05  0.000000D+00 -0.128808D-02  0.781997D-03
     14  0.187196D-05 -0.998110D-01  0.000000D+00  0.781211D-03  0.704638D-02
     15  0.000000D+00  0.000000D+00 -0.156738D+00  0.420910D-03  0.453321D-02
     16 -0.766320D-04  0.682343D-03 -0.170784D-03  0.430435D-03  0.552143D-04
     17  0.681664D-03  0.718264D-02 -0.184028D-02  0.551585D-04  0.101841D-02
     18 -0.310330D-02 -0.333383D-01 -0.116029D-01  0.210252D-03  0.226353D-02
     19  0.595848D-02  0.280269D-02  0.167899D-02  0.181378D-03  0.203844D-03
     20  0.280203D-02  0.114754D-02  0.772165D-03  0.776629D-03  0.323464D-03
     21  0.304235D-01  0.139816D-01 -0.116028D-01  0.525963D-03 -0.670398D-03
     22  0.477718D-02 -0.348403D-02 -0.150828D-02  0.880980D-05 -0.144758D-03
     23 -0.348469D-02  0.232882D-02  0.106796D-02 -0.717279D-03  0.496889D-03
     24 -0.273202D-01  0.193567D-01 -0.116028D-01 -0.640340D-03 -0.561937D-03
                6             7             8             9            10 
      6  0.880891D-01
      7  0.278091D-02  0.239285D+00
      8  0.102346D-01 -0.135921D+00  0.143687D+00
      9  0.509014D-02  0.723110D-01 -0.512267D-01  0.880891D-01
     10 -0.846019D-03 -0.165945D-01 -0.112818D-01  0.747293D-02  0.285297D+00
     11  0.105721D-01  0.160740D-01  0.894830D-02 -0.752562D-02  0.109356D+00
     12  0.509014D-02 -0.873267D-02 -0.601871D-02  0.509014D-02 -0.805191D-01
     13 -0.343060D-02  0.428591D-02 -0.399936D-02 -0.302278D-01  0.563976D-02
     14 -0.368847D-01 -0.400015D-02  0.147245D-02  0.214134D-01  0.321774D-02
     15 -0.204502D-01  0.371546D-02 -0.263118D-02 -0.204502D-01 -0.413647D-02
     16  0.181019D-03 -0.136614D-03 -0.593036D-03 -0.856103D-03  0.159605D-05
     17  0.194051D-02 -0.202508D-04  0.641457D-03  0.557171D-03  0.140593D-03
     18 -0.694735D-02 -0.843563D-03 -0.120299D-03  0.110301D-02  0.806822D-03
     19 -0.544728D-04  0.748142D-03  0.290425D-03 -0.809702D-03  0.919206D-03
     20 -0.101999D-02 -0.282096D-03 -0.242444D-03  0.623066D-03  0.226978D-03
     21  0.110301D-02 -0.166482D-03  0.835519D-03  0.110409D-02 -0.206540D-02
     22 -0.134740D-03  0.823621D-03 -0.282164D-03  0.159002D-02  0.712500D-03
     23 -0.101276D-02 -0.282220D-03  0.625221D-03 -0.112702D-02  0.102799D-03
     24  0.110409D-02  0.185515D-02 -0.131385D-02 -0.694735D-02  0.317600D-03
               11            12            13            14            15 
     11  0.976746D-01
     12 -0.370098D-01  0.880891D-01
     13  0.321856D-02  0.336584D-01  0.744124D+00
     14  0.118638D-03  0.154714D-01  0.000000D+00  0.744124D+00
     15 -0.190215D-02 -0.204501D-01  0.000000D+00  0.000000D+00  0.530743D+00
     16  0.713115D-03  0.944442D-03 -0.709273D-01 -0.275572D-01 -0.102709D-01
     17  0.504103D-03  0.389689D-03 -0.275567D-01 -0.364373D+00 -0.110309D+00
     18 -0.273582D-03  0.110409D-02 -0.110925D-01 -0.119137D+00 -0.104218D+00
     19  0.227034D-03 -0.177104D-02 -0.314877D+00 -0.113287D+00  0.100666D+00
     20  0.529635D-03 -0.813489D-03 -0.113287D+00 -0.120424D+00  0.462599D-01
     21 -0.949680D-03 -0.694735D-02  0.108722D+00  0.499621D-01 -0.104218D+00
     22 -0.469985D-03  0.910576D-03 -0.267147D+00  0.140844D+00 -0.903953D-01
     23 -0.207657D-03  0.462821D-03  0.140845D+00 -0.168154D+00  0.640496D-01
     24  0.790697D-03  0.110301D-02 -0.976295D-01  0.691750D-01 -0.104218D+00
               16            17            18            19            20 
     16  0.640255D-01
     17  0.298428D-01  0.381804D+00
     18  0.112262D-01  0.120583D+00  0.107850D+00
     19  0.619466D-03  0.999942D-03 -0.733161D-03  0.328204D+00
     20 -0.331205D-01 -0.106665D-01  0.152103D-01  0.122681D+00  0.117625D+00
     21 -0.145930D-01 -0.435002D-02  0.635542D-02 -0.110041D+00 -0.505691D-01
     22  0.606357D-02 -0.414309D-02  0.352927D-02 -0.217536D-01  0.202034D-01
     23  0.299773D-01 -0.161106D-01  0.148129D-01 -0.139170D-01  0.117066D-01
     24  0.135391D-01 -0.697022D-02  0.635542D-02  0.110637D-01 -0.104629D-01
               21            22            23            24 
     21  0.107850D+00
     22 -0.128059D-01  0.276514D+00
     23 -0.824009D-02 -0.152523D+00  0.169315D+00
     24  0.635542D-02  0.988144D-01 -0.700135D-01  0.107850D+00
 Force constants in internal coordinates: 
                1             2             3             4             5 
      1  0.364012D+00
      2  0.109606D-02  0.364012D+00
      3  0.109609D-02  0.109605D-02  0.364012D+00
      4  0.255041D-02  0.255036D-02  0.255030D-02  0.267118D+00
      5 -0.146680D-02  0.273655D-03  0.273473D-03  0.503384D-02  0.429986D+00
      6  0.273648D-03  0.273479D-03 -0.146677D-02  0.503365D-02  0.108675D-02
      7  0.273479D-03 -0.146681D-02  0.273653D-03  0.503369D-02  0.108673D-02
      8  0.407845D-02  0.407761D-02 -0.130239D-02 -0.264064D-01 -0.813884D-04
      9  0.407761D-02 -0.130239D-02  0.407848D-02 -0.264064D-01 -0.807886D-04
     10 -0.229082D-03 -0.348941D-02 -0.348925D-02  0.277705D-01  0.252466D-02
     11 -0.130240D-02  0.407846D-02  0.407763D-02 -0.264064D-01  0.883034D-03
     12 -0.348921D-02 -0.229138D-03 -0.348941D-02  0.277705D-01 -0.164145D-02
     13 -0.348942D-02 -0.348919D-02 -0.229114D-03  0.277706D-01 -0.164131D-02
     14  0.740266D-03  0.343640D-04  0.334312D-04  0.140507D-01 -0.507415D-02
     15  0.343477D-04  0.334305D-04  0.740243D-03  0.140508D-01 -0.350357D-02
     16  0.334127D-04  0.740241D-03  0.344026D-04  0.140508D-01 -0.350296D-02
     17 -0.376362D-03 -0.115998D-03 -0.376029D-03 -0.151000D-01  0.648214D-02
     18 -0.376014D-03 -0.376363D-03 -0.116003D-03 -0.151000D-01  0.648722D-02
     19 -0.115987D-03 -0.376012D-03 -0.376386D-03 -0.151000D-01  0.134195D-04
     20  0.000000D+00 -0.271313D-02  0.271323D-02  0.000000D+00  0.358404D-05
     21  0.502083D-04 -0.281459D-02  0.276384D-02  0.000000D+00  0.239192D-02
     22 -0.512627D-04 -0.276395D-02  0.281467D-02  0.000000D+00 -0.239165D-02
     23  0.276385D-02  0.502039D-04 -0.281460D-02  0.000000D+00  0.408600D-03
     24  0.281469D-02 -0.512569D-04 -0.276399D-02  0.000000D+00  0.279693D-02
     25  0.271321D-02  0.000000D+00 -0.271316D-02  0.000000D+00 -0.198663D-02
     26 -0.276397D-02  0.281467D-02 -0.512386D-04  0.000000D+00 -0.402233D-03
     27 -0.271314D-02  0.271320D-02  0.000000D+00  0.000000D+00  0.198610D-02
     28 -0.281461D-02  0.276384D-02  0.502023D-04  0.000000D+00 -0.279746D-02
                6             7             8             9            10 
      6  0.429986D+00
      7  0.108673D-02  0.429986D+00
      8  0.883031D-03 -0.807881D-04  0.536164D-01
      9 -0.813922D-04  0.883029D-03  0.121744D-01  0.536164D-01
     10 -0.164146D-02 -0.164129D-02 -0.464875D-01 -0.464846D-01  0.134683D+00
     11 -0.808043D-04 -0.813830D-04  0.121744D-01  0.121744D-01  0.109792D-01
     12 -0.164127D-02  0.252465D-02 -0.464846D-01  0.109792D-01 -0.242273D-01
     13  0.252466D-02 -0.164146D-02  0.109792D-01 -0.464875D-01 -0.242273D-01
     14 -0.350300D-02 -0.350356D-02 -0.427455D-02 -0.427427D-02  0.176045D-01
     15 -0.507414D-02 -0.350296D-02  0.347873D-02 -0.427454D-02 -0.613547D-02
     16 -0.350357D-02 -0.507417D-02 -0.427427D-02  0.347872D-02 -0.613703D-02
     17  0.648723D-02  0.134200D-04  0.801295D-03  0.384630D-02 -0.503681D-02
     18  0.134220D-04  0.648214D-02  0.384630D-02  0.801092D-03 -0.503587D-02
     19  0.648215D-02  0.648722D-02  0.801091D-03  0.801298D-03  0.434251D-02
     20 -0.198664D-02  0.198609D-02 -0.610858D-02  0.610715D-02  0.165209D-05
     21  0.408588D-03 -0.279746D-02 -0.563210D-02  0.515427D-02  0.143735D-02
     22  0.279695D-02 -0.402239D-03 -0.515569D-02  0.563075D-02 -0.143417D-02
     23 -0.279746D-02  0.239191D-02  0.515427D-02  0.476573D-03  0.721305D-02
     24 -0.402233D-03 -0.239164D-02  0.563075D-02 -0.476314D-03  0.864874D-02
     25  0.198612D-02  0.358001D-05  0.610716D-02  0.000000D+00  0.577723D-02
     26 -0.239164D-02  0.279693D-02 -0.476321D-03 -0.515569D-02 -0.721326D-02
     27  0.358175D-05 -0.198662D-02  0.000000D+00 -0.610858D-02 -0.577756D-02
     28  0.239194D-02  0.408595D-03  0.476571D-03 -0.563209D-02 -0.864908D-02
               11            12            13            14            15 
     11  0.536164D-01
     12 -0.464875D-01  0.134683D+00
     13 -0.464846D-01 -0.242273D-01  0.134683D+00
     14  0.347872D-02 -0.613545D-02 -0.613704D-02  0.102764D+00
     15 -0.427426D-02 -0.613706D-02  0.176045D-01 -0.182848D-01  0.102764D+00
     16 -0.427456D-02  0.176045D-01 -0.613548D-02 -0.182848D-01 -0.182848D-01
     17  0.801094D-03  0.434251D-02 -0.503587D-02 -0.422751D-01 -0.422754D-01
     18  0.801297D-03 -0.503682D-02  0.434252D-02 -0.422754D-01  0.134137D-01
     19  0.384630D-02 -0.503588D-02 -0.503681D-02  0.134137D-01 -0.422751D-01
     20  0.000000D+00 -0.577756D-02  0.577724D-02  0.000000D+00 -0.256664D-02
     21  0.476568D-03 -0.864908D-02  0.721306D-02  0.397596D-02  0.140935D-02
     22 -0.476318D-03 -0.721327D-02  0.864875D-02 -0.397636D-02  0.538569D-02
     23 -0.563209D-02  0.143735D-02 -0.864908D-02  0.140935D-02 -0.538552D-02
     24 -0.515568D-02 -0.143417D-02 -0.721326D-02  0.538569D-02 -0.140953D-02
     25 -0.610857D-02  0.163885D-05 -0.577757D-02 -0.256663D-02  0.256680D-02
     26  0.563075D-02  0.864876D-02 -0.143417D-02 -0.140953D-02 -0.397637D-02
     27  0.610716D-02  0.577723D-02  0.165270D-05  0.256681D-02  0.000000D+00
     28  0.515427D-02  0.721304D-02  0.143735D-02 -0.538551D-02  0.397596D-02
               16            17            18            19            20 
     16  0.102764D+00
     17  0.134137D-01  0.565747D-01
     18 -0.422751D-01  0.993703D-02  0.565747D-01
     19 -0.422754D-01  0.993703D-02  0.993703D-02  0.565747D-01
     20  0.256679D-02 -0.766791D-02  0.766823D-02  0.000000D+00  0.149685D-01
     21 -0.538553D-02  0.654043D-02  0.563964D-03 -0.710416D-02  0.343209D-02
     22 -0.140953D-02 -0.563842D-03 -0.654012D-02  0.710418D-02  0.343210D-02
     23  0.397596D-02 -0.710416D-02  0.654042D-02  0.563962D-03  0.437461D-02
     24 -0.397635D-02  0.710418D-02 -0.563838D-03 -0.654012D-02 -0.716178D-02
     25  0.000000D+00  0.000000D+00 -0.766792D-02  0.766822D-02 -0.716177D-02
     26  0.538568D-02 -0.654012D-02  0.710418D-02 -0.563835D-03  0.437462D-02
     27 -0.256663D-02  0.766822D-02  0.000000D+00 -0.766792D-02 -0.716178D-02
     28  0.140936D-02  0.563955D-03 -0.710416D-02  0.654042D-02 -0.716177D-02
               21            22            23            24            25 
     21  0.154618D-01
     22  0.367876D-02  0.154618D-01
     23 -0.740845D-02 -0.765511D-02  0.154618D-01
     24  0.462128D-02 -0.740845D-02  0.367875D-02  0.154618D-01
     25 -0.716178D-02  0.437462D-02  0.343209D-02  0.343209D-02  0.149685D-01
     26 -0.765511D-02 -0.740845D-02  0.462128D-02 -0.740845D-02 -0.716179D-02
     27  0.437461D-02 -0.716179D-02 -0.716178D-02  0.437462D-02 -0.716179D-02
     28 -0.740845D-02  0.462128D-02 -0.740844D-02 -0.765512D-02  0.437461D-02
               26            27            28 
     26  0.154618D-01
     27  0.343210D-02  0.149685D-01
     28  0.367876D-02  0.343208D-02  0.154618D-01
 Leave Link  716 at Thu Feb 26 00:47:44 2015, MaxMem= 1073741824 cpu:       0.2
 (Enter /apps/gaussian/g09_c01/g09/l103.exe)

 GradGradGradGradGradGradGradGradGradGradGradGradGradGradGradGradGradGrad
 Berny optimization.
 Red2BG is reusing G-inverse.
 Internal  Forces:  Max     0.007429672 RMS     0.001532327
 Search for a local minimum.
 Step number   1 out of a maximum of   38
 All quantities printed in internal units (Hartrees-Bohrs-Radians)
 RMS Force = .15323D-02 SwitMx=.10000D-02 MixMth= 1
 Mixed Optimization -- RFO/linear search
 Second derivative matrix not updated -- analytic derivatives used.
 ITU=  0
     Eigenvalues ---    0.00193   0.04878   0.04878   0.05186   0.05186
     Eigenvalues ---    0.12596   0.13568   0.13568   0.13835   0.19888
     Eigenvalues ---    0.19888   0.30778   0.36323   0.36323   0.36671
     Eigenvalues ---    0.42928   0.42928   0.43352
 RFO step:  Lambda=-2.49033858D-04 EMin= 1.93476951D-03
 Linear search not attempted -- first point.
 Iteration  1 RMS(Cart)=  0.00666984 RMS(Int)=  0.00001253
 Iteration  2 RMS(Cart)=  0.00001274 RMS(Int)=  0.00000681
 Iteration  3 RMS(Cart)=  0.00000000 RMS(Int)=  0.00000681
 ClnCor:  largest displacement from symmetrization is 4.69D-08 for atom     7.
 Variable       Old X    -DE/DX   Delta X   Delta X   Delta X     New X
                                 (Linear)    (Quad)   (Total)
    R1        2.05946  -0.00007   0.00000   0.00021   0.00021   2.05967
    R2        2.05946  -0.00007   0.00000   0.00021   0.00021   2.05967
    R3        2.05946  -0.00007   0.00000   0.00021   0.00021   2.05967
    R4        2.86675  -0.00743   0.00000  -0.03085  -0.03085   2.83589
    R5        1.94289  -0.00184   0.00000  -0.00384  -0.00384   1.93905
    R6        1.94289  -0.00184   0.00000  -0.00384  -0.00384   1.93905
    R7        1.94289  -0.00184   0.00000  -0.00384  -0.00384   1.93905
    A1        1.93261   0.00001   0.00000  -0.00484  -0.00485   1.92776
    A2        1.93261   0.00001   0.00000  -0.00484  -0.00485   1.92776
    A3        1.88811  -0.00001   0.00000   0.00509   0.00507   1.89318
    A4        1.93261   0.00001   0.00000  -0.00484  -0.00485   1.92776
    A5        1.88811  -0.00001   0.00000   0.00509   0.00507   1.89318
    A6        1.88811  -0.00001   0.00000   0.00509   0.00507   1.89318
    A7        1.94749  -0.00023   0.00000   0.00076   0.00076   1.94825
    A8        1.94749  -0.00023   0.00000   0.00076   0.00076   1.94825
    A9        1.94749  -0.00023   0.00000   0.00076   0.00076   1.94825
   A10        1.87238   0.00024   0.00000  -0.00082  -0.00082   1.87156
   A11        1.87238   0.00024   0.00000  -0.00082  -0.00082   1.87156
   A12        1.87238   0.00024   0.00000  -0.00082  -0.00082   1.87156
    D1        3.14146   0.00000   0.00000   0.00010   0.00010   3.14156
    D2       -1.04733   0.00000   0.00000   0.00010   0.00010  -1.04723
    D3        1.04707   0.00000   0.00000   0.00010   0.00010   1.04716
    D4       -1.04733   0.00000   0.00000   0.00010   0.00010  -1.04723
    D5        1.04707   0.00000   0.00000   0.00010   0.00010   1.04716
    D6        3.14146   0.00000   0.00000   0.00010   0.00010   3.14156
    D7        1.04707   0.00000   0.00000   0.00010   0.00010   1.04716
    D8        3.14146   0.00000   0.00000   0.00010   0.00010   3.14156
    D9       -1.04733   0.00000   0.00000   0.00010   0.00010  -1.04723
         Item               Value     Threshold  Converged?
 Maximum Force            0.007430     0.000002     NO 
 RMS     Force            0.001532     0.000001     NO 
 Maximum Displacement     0.019187     0.000006     NO 
 RMS     Displacement     0.006679     0.000004     NO 
 Predicted change in Energy=-1.246600D-04
 GradGradGradGradGradGradGradGradGradGradGradGradGradGradGradGradGradGrad

 Leave Link  103 at Thu Feb 26 00:47:44 2015, MaxMem= 1073741824 cpu:       0.0
 (Enter /apps/gaussian/g09_c01/g09/l202.exe)
                          Input orientation:                          
 ---------------------------------------------------------------------
 Center     Atomic      Atomic             Coordinates (Angstroms)
 Number     Number       Type             X           Y           Z
 ---------------------------------------------------------------------
      1          6           0        0.000000    0.000000   -0.794302
      2          1           0       -0.095769   -1.029335   -1.139625
      3          1           0       -0.843546    0.597606   -1.139625
      4          1           0        0.939315    0.431729   -1.139625
      5          7           0        0.000000    0.000000    0.706388
      6          1           0        0.088397    0.949765    1.084563
      7          1           0       -0.866720   -0.398328    1.084563
      8          1           0        0.778322   -0.551437    1.084563
 ---------------------------------------------------------------------
                    Distance matrix (angstroms):
                    1          2          3          4          5
     1  C    0.000000
     2  H    1.089932   0.000000
     3  H    1.089932   1.790561   0.000000
     4  H    1.089932   1.790561   1.790561   0.000000
     5  N    1.500690   2.115766   2.115766   2.115766   0.000000
     6  H    2.107131   2.982913   2.437118   2.437095   1.026101
     7  H    2.107131   2.437118   2.437095   2.982913   1.026101
     8  H    2.107131   2.437095   2.982913   2.437118   1.026101
                    6          7          8
     6  H    0.000000
     7  H    1.652151   0.000000
     8  H    1.652151   1.652151   0.000000
 Stoichiometry    CH6N(1+)
 Framework group  C3[C3(CN),X(H6)]
 Deg. of freedom     6
 Full point group                 C3      NOp   3
 RotChk:  IX=0 Diff= 0.00D+00
 Largest Abelian subgroup         C1      NOp   1
 Largest concise Abelian subgroup C1      NOp   1
                         Standard orientation:                         
 ---------------------------------------------------------------------
 Center     Atomic      Atomic             Coordinates (Angstroms)
 Number     Number       Type             X           Y           Z
 ---------------------------------------------------------------------
      1          6           0        0.000000    0.000000   -0.795024
      2          1           0        1.029335   -0.095769   -1.140347
      3          1           0       -0.597606   -0.843546   -1.140347
      4          1           0       -0.431729    0.939315   -1.140347
      5          7           0        0.000000    0.000000    0.705666
      6          1           0       -0.949765    0.088397    1.083841
      7          1           0        0.398328   -0.866719    1.083841
      8          1           0        0.551437    0.778322    1.083841
 ---------------------------------------------------------------------
 Rotational constants (GHZ):     84.4810162     20.1898256     20.1898256
 Leave Link  202 at Thu Feb 26 00:47:44 2015, MaxMem= 1073741824 cpu:       0.0
 (Enter /apps/gaussian/g09_c01/g09/l301.exe)
 Standard basis: 6-31G(d) (6D, 7F)
 Ernie: Thresh=  0.10000D-02 Tol=  0.10000D-05 Strict=F.
 There are    42 symmetry adapted basis functions of A   symmetry.
 Integral buffers will be    131072 words long.
 Raffenetti 2 integral format.
 Two-electron integral symmetry is turned on.
    42 basis functions,    80 primitive gaussians,    42 cartesian basis functions
     9 alpha electrons        9 beta electrons
       nuclear repulsion energy        47.8347481639 Hartrees.
 IExCor= 1009 DFT=T Ex+Corr=PBE1PBE ExCW=0 ScaHFX=  0.250000
 ScaDFX=  0.750000  0.750000  1.000000  1.000000 ScalE2=  1.000000  1.000000
 IRadAn=      5 IRanWt=     -1 IRanGd=            0 ICorTp=0
 NAtoms=    8 NActive=    8 NUniq=    4 SFac= 4.00D+00 NAtFMM=   60 NAOKFM=F Big=F
 Leave Link  301 at Thu Feb 26 00:47:44 2015, MaxMem= 1073741824 cpu:       0.3
 (Enter /apps/gaussian/g09_c01/g09/l302.exe)
 NPDir=0 NMtPBC=     1 NCelOv=     1 NCel=       1 NClECP=     1 NCelD=      1
         NCelK=      1 NCelE2=     1 NClLst=     1 CellRange=     0.0.
 One-electron integrals computed using PRISM.
 NBasis=    42 RedAO= T  NBF=    42
 NBsUse=    42 1.00D-06 NBFU=    42
 Precomputing XC quadrature grid using
 IXCGrd= 2 IRadAn=           5 IRanWt=          -1 IRanGd=           0 AccXCQ= 0.00D+00.
 NRdTot=     652 NPtTot=      172830 NUsed=      177511 NTot=      177543
 NSgBfM=    42    42    42    42    42 NAtAll=     8     8.
 Leave Link  302 at Thu Feb 26 00:47:44 2015, MaxMem= 1073741824 cpu:       1.0
 (Enter /apps/gaussian/g09_c01/g09/l303.exe)
 DipDrv:  MaxL=1.
 Leave Link  303 at Thu Feb 26 00:47:44 2015, MaxMem= 1073741824 cpu:       0.1
 (Enter /apps/gaussian/g09_c01/g09/l401.exe)
 Initial guess read from the read-write file.
 B after Tr=     0.000000    0.000000    0.000000
         Rot=    1.000000    0.000000    0.000000    0.000000 Ang=   0.00 deg.
 Guess basis will be translated and rotated to current coordinates.
 Initial guess orbital symmetries:
       Occupied  (A) (A) (A) (A) (E) (E) (A) (E) (E)
       Virtual   (A) (E) (E) (A) (A) (E) (E) (A) (E) (E) (E) (E)
                 (A) (E) (E) (A) (E) (E) (A) (A) (E) (E) (A) (A)
                 (E) (E) (E) (E) (E) (E) (A) (A) (A)
 The electronic state of the initial guess is 1-A.
 Leave Link  401 at Thu Feb 26 00:47:44 2015, MaxMem= 1073741824 cpu:       0.5
 (Enter /apps/gaussian/g09_c01/g09/l502.exe)
 Closed shell SCF:
 Requested convergence on RMS density matrix=1.00D-08 within 128 cycles.
 Requested convergence on MAX density matrix=1.00D-06.
 Requested convergence on             energy=1.00D-06.
 No special actions if energy rises.
 Using DIIS extrapolation, IDIIS=  1040.
 Integral symmetry usage will be decided dynamically.
       177426 words used for storage of precomputed grid.
 Keep R1 ints in memory in canonical form, NReq=1471782.
 IEnd=      201570 IEndB=      201570 NGot=  1073741824 MDV=  1073150517
 LenX=  1073150517 LenY=  1073148312
 Symmetry not used in FoFDir.
 MinBra= 0 MaxBra= 2 Meth= 1.
 IRaf=       0 NMat=   1 IRICut=       1 DoRegI=T DoRafI=F ISym2E= 0 JSym2E=0.

 Cycle   1  Pass 1  IDiag  1:
 E= -96.0940630880845    
 DIIS: error= 9.30D-04 at cycle   1 NSaved=   1.
 NSaved= 1 IEnMin= 1 EnMin= -96.0940630880845     IErMin= 1 ErrMin= 9.30D-04
 ErrMax= 9.30D-04 EMaxC= 1.00D-01 BMatC= 4.65D-05 BMatP= 4.65D-05
 IDIUse=3 WtCom= 9.91D-01 WtEn= 9.30D-03
 Coeff-Com:  0.100D+01
 Coeff-En:   0.100D+01
 Coeff:      0.100D+01
 Gap=     0.467 Goal=   None    Shift=    0.000
 RMSDP=2.24D-04 MaxDP=2.42D-03              OVMax= 3.37D-03

 Cycle   2  Pass 1  IDiag  1:
 E= -96.0941277577094     Delta-E=       -0.000064669625 Rises=F Damp=F
 DIIS: error= 3.86D-04 at cycle   2 NSaved=   2.
 NSaved= 2 IEnMin= 2 EnMin= -96.0941277577094     IErMin= 2 ErrMin= 3.86D-04
 ErrMax= 3.86D-04 EMaxC= 1.00D-01 BMatC= 7.76D-06 BMatP= 4.65D-05
 IDIUse=3 WtCom= 9.96D-01 WtEn= 3.86D-03
 Coeff-Com:  0.193D+00 0.807D+00
 Coeff-En:   0.000D+00 0.100D+01
 Coeff:      0.193D+00 0.807D+00
 Gap=     0.467 Goal=   None    Shift=    0.000
 RMSDP=7.48D-05 MaxDP=1.02D-03 DE=-6.47D-05 OVMax= 1.01D-03

 Cycle   3  Pass 1  IDiag  1:
 E= -96.0941309366679     Delta-E=       -0.000003178958 Rises=F Damp=F
 DIIS: error= 2.84D-04 at cycle   3 NSaved=   3.
 NSaved= 3 IEnMin= 3 EnMin= -96.0941309366679     IErMin= 3 ErrMin= 2.84D-04
 ErrMax= 2.84D-04 EMaxC= 1.00D-01 BMatC= 4.36D-06 BMatP= 7.76D-06
 IDIUse=3 WtCom= 9.97D-01 WtEn= 2.84D-03
 Coeff-Com: -0.367D-01 0.426D+00 0.610D+00
 Coeff-En:   0.000D+00 0.348D+00 0.652D+00
 Coeff:     -0.366D-01 0.426D+00 0.611D+00
 Gap=     0.467 Goal=   None    Shift=    0.000
 RMSDP=3.22D-05 MaxDP=4.74D-04 DE=-3.18D-06 OVMax= 5.07D-04

 Cycle   4  Pass 1  IDiag  1:
 E= -96.0941345559534     Delta-E=       -0.000003619286 Rises=F Damp=F
 DIIS: error= 2.71D-05 at cycle   4 NSaved=   4.
 NSaved= 4 IEnMin= 4 EnMin= -96.0941345559534     IErMin= 4 ErrMin= 2.71D-05
 ErrMax= 2.71D-05 EMaxC= 1.00D-01 BMatC= 3.61D-08 BMatP= 4.36D-06
 IDIUse=1 WtCom= 1.00D+00 WtEn= 0.00D+00
 Coeff-Com: -0.168D-01 0.165D+00 0.253D+00 0.599D+00
 Coeff:     -0.168D-01 0.165D+00 0.253D+00 0.599D+00
 Gap=     0.467 Goal=   None    Shift=    0.000
 RMSDP=4.05D-06 MaxDP=5.17D-05 DE=-3.62D-06 OVMax= 7.94D-05

 Cycle   5  Pass 1  IDiag  1:
 E= -96.0941345874032     Delta-E=       -0.000000031450 Rises=F Damp=F
 DIIS: error= 7.22D-06 at cycle   5 NSaved=   5.
 NSaved= 5 IEnMin= 5 EnMin= -96.0941345874032     IErMin= 5 ErrMin= 7.22D-06
 ErrMax= 7.22D-06 EMaxC= 1.00D-01 BMatC= 2.33D-09 BMatP= 3.61D-08
 IDIUse=1 WtCom= 1.00D+00 WtEn= 0.00D+00
 Coeff-Com: -0.185D-02 0.122D-01 0.253D-01 0.220D+00 0.744D+00
 Coeff:     -0.185D-02 0.122D-01 0.253D-01 0.220D+00 0.744D+00
 Gap=     0.467 Goal=   None    Shift=    0.000
 RMSDP=8.43D-07 MaxDP=1.37D-05 DE=-3.14D-08 OVMax= 1.36D-05

 Cycle   6  Pass 1  IDiag  1:
 E= -96.0941345895379     Delta-E=       -0.000000002135 Rises=F Damp=F
 DIIS: error= 6.35D-07 at cycle   6 NSaved=   6.
 NSaved= 6 IEnMin= 6 EnMin= -96.0941345895379     IErMin= 6 ErrMin= 6.35D-07
 ErrMax= 6.35D-07 EMaxC= 1.00D-01 BMatC= 1.01D-11 BMatP= 2.33D-09
 IDIUse=1 WtCom= 1.00D+00 WtEn= 0.00D+00
 Coeff-Com:  0.178D-03-0.282D-02-0.368D-02 0.188D-01 0.942D-01 0.893D+00
 Coeff:      0.178D-03-0.282D-02-0.368D-02 0.188D-01 0.942D-01 0.893D+00
 Gap=     0.467 Goal=   None    Shift=    0.000
 RMSDP=9.02D-08 MaxDP=5.40D-07 DE=-2.13D-09 OVMax= 1.25D-06

 Cycle   7  Pass 1  IDiag  1:
 E= -96.0941345895499     Delta-E=       -0.000000000012 Rises=F Damp=F
 DIIS: error= 3.59D-08 at cycle   7 NSaved=   7.
 NSaved= 7 IEnMin= 7 EnMin= -96.0941345895499     IErMin= 7 ErrMin= 3.59D-08
 ErrMax= 3.59D-08 EMaxC= 1.00D-01 BMatC= 4.51D-14 BMatP= 1.01D-11
 IDIUse=1 WtCom= 1.00D+00 WtEn= 0.00D+00
 Coeff-Com:  0.780D-05-0.407D-04-0.149D-03-0.115D-02-0.637D-02-0.214D-01
 Coeff-Com:  0.103D+01
 Coeff:      0.780D-05-0.407D-04-0.149D-03-0.115D-02-0.637D-02-0.214D-01
 Coeff:      0.103D+01
 Gap=     0.467 Goal=   None    Shift=    0.000
 RMSDP=5.75D-09 MaxDP=6.27D-08 DE=-1.20D-11 OVMax= 6.99D-08

 SCF Done:  E(RPBE1PBE) =  -96.0941345895     A.U. after    7 cycles
             Convg  =    0.5753D-08             -V/T =  2.0094
 KE= 9.519661522620D+01 PE=-3.131537369551D+02 EE= 7.402823897547D+01
 Leave Link  502 at Thu Feb 26 00:47:45 2015, MaxMem= 1073741824 cpu:       3.9
 (Enter /apps/gaussian/g09_c01/g09/l801.exe)
 Range of M.O.s used for correlation:     1    42
 NBasis=    42 NAE=     9 NBE=     9 NFC=     0 NFV=     0
 NROrb=     42 NOA=     9 NOB=     9 NVA=    33 NVB=    33
 Leave Link  801 at Thu Feb 26 00:47:45 2015, MaxMem= 1073741824 cpu:       0.1
 (Enter /apps/gaussian/g09_c01/g09/l1002.exe)
 Minotr:  Closed shell wavefunction.
          Direct CPHF calculation.
          Differentiating once with respect to electric field.
                with respect to dipole field.
          Electric field/nuclear overlap derivatives assumed to be zero.
          Using symmetry in CPHF.
          Requested convergence is 1.0D-08 RMS, and 1.0D-07 maximum.
          Secondary convergence is 1.0D-12 RMS, and 1.0D-12 maximum.
          NewPWx=F KeepS1=T KeepF1=T KeepIn=T MapXYZ=F SortEE=F KeepMc=T.
          MDV=    1073741756 using IRadAn=       1.
 Generate precomputed XC quadrature information.
          Keep R1 ints in memory in canonical form, NReq=1231071.
 Symmetry not used in FoFDir.
 MinBra= 0 MaxBra= 2 Meth= 1.
 IRaf=       0 NMat=   1 IRICut=       1 DoRegI=T DoRafI=F ISym2E= 0 JSym2E=0.
          Solving linear equations simultaneously, MaxMat=       0.
          There are     3 degrees of freedom in the 1st order CPHF.  IDoFFX=0.
      3 vectors produced by pass  0 Test12= 9.90D-15 3.33D-08 XBig12= 7.33D+00 1.67D+00.
 AX will form     3 AO Fock derivatives at one time.
      3 vectors produced by pass  1 Test12= 9.90D-15 3.33D-08 XBig12= 3.15D-01 2.49D-01.
      3 vectors produced by pass  2 Test12= 9.90D-15 3.33D-08 XBig12= 7.15D-02 9.06D-02.
      3 vectors produced by pass  3 Test12= 9.90D-15 3.33D-08 XBig12= 2.69D-03 1.75D-02.
      3 vectors produced by pass  4 Test12= 9.90D-15 3.33D-08 XBig12= 4.65D-04 5.98D-03.
      3 vectors produced by pass  5 Test12= 9.90D-15 3.33D-08 XBig12= 9.04D-06 1.17D-03.
      3 vectors produced by pass  6 Test12= 9.90D-15 3.33D-08 XBig12= 1.97D-07 1.47D-04.
      3 vectors produced by pass  7 Test12= 9.90D-15 3.33D-08 XBig12= 3.81D-09 2.77D-05.
      1 vectors produced by pass  8 Test12= 9.90D-15 3.33D-08 XBig12= 8.25D-12 8.93D-07.
      1 vectors produced by pass  9 Test12= 9.90D-15 3.33D-08 XBig12= 1.44D-14 5.17D-08.
 Inverted reduced A of dimension    26 with in-core refinement.
 End of Minotr Frequency-dependent properties file   721 does not exist.
 End of Minotr Frequency-dependent properties file   722 does not exist.
 Leave Link 1002 at Thu Feb 26 00:47:45 2015, MaxMem= 1073741824 cpu:       5.8
 (Enter /apps/gaussian/g09_c01/g09/l1101.exe)
 Using compressed storage, NAtomX=     8.
 Will process   9 centers per pass.
 Leave Link 1101 at Thu Feb 26 00:47:46 2015, MaxMem= 1073741824 cpu:       0.9
 (Enter /apps/gaussian/g09_c01/g09/l1102.exe)
 Symmetrizing basis deriv contribution to polar:
 IMax=3 JMax=2 DiffMx= 0.00D+00
 Leave Link 1102 at Thu Feb 26 00:47:46 2015, MaxMem= 1073741824 cpu:       0.1
 (Enter /apps/gaussian/g09_c01/g09/l1110.exe)
 Forming Gx(P) for the SCF density, NAtomX=     8.
 Integral derivatives from FoFDir/FoFCou, PRISM(SPDF).
 Do as many integral derivatives as possible in FoFDir.
 G2DrvN: MDV=    1073741656.
 G2DrvN: will do     9 centers at a time, making    1 passes doing MaxLOS=2.
 Calling FoFCou, ICntrl=  3107 FMM=F I1Cent=   0 AccDes= 0.00D+00.
 FoFCou: FMM=F IPFlag=           0 FMFlag=      100000 FMFlg1=           0
         NFxFlg=           0 DoJE=F BraDBF=F KetDBF=F FulRan=T
         Omega=  0.000000  0.000000  1.000000  0.000000  0.000000 ICntrl=    3107 IOpCl=  0
         NMat0=    1 NMatS0=    1 NMatT0=    0 NMatD0=    4 NMtDS0=    3 NMtDT0=    0
         I1Cent=           0 NGrid=           0.
 Petite list used in FoFCou.
 FoFDir/FoFCou used for L=0 through L=2.
 End of G2Drv Frequency-dependent properties file   721 does not exist.
 End of G2Drv Frequency-dependent properties file   722 does not exist.
 Leave Link 1110 at Thu Feb 26 00:47:47 2015, MaxMem= 1073741824 cpu:      12.0
 (Enter /apps/gaussian/g09_c01/g09/l1002.exe)
 Minotr:  Closed shell wavefunction.
          IDoAtm=11111111
          Direct CPHF calculation.
          Differentiating once with respect to electric field.
                with respect to dipole field.
          Differentiating once with respect to nuclear coordinates.
          Using symmetry in CPHF.
          Requested convergence is 1.0D-08 RMS, and 1.0D-07 maximum.
          Secondary convergence is 1.0D-12 RMS, and 1.0D-12 maximum.
          NewPWx=T KeepS1=F KeepF1=F KeepIn=T MapXYZ=F SortEE=F KeepMc=T.
          MDV=    1073741740 using IRadAn=       1.
 Generate precomputed XC quadrature information.
          Keep R1 ints in memory in canonical form, NReq=1231239.
 Symmetry not used in FoFDir.
 MinBra= 0 MaxBra= 2 Meth= 1.
 IRaf=       0 NMat=   1 IRICut=       1 DoRegI=T DoRafI=F ISym2E= 0 JSym2E=0.
          Solving linear equations simultaneously, MaxMat=       0.
          There are    15 degrees of freedom in the 1st order CPHF.  IDoFFX=4.
 Will reuse    3 saved solutions.
     12 vectors produced by pass  0 Test12= 1.98D-15 6.67D-09 XBig12= 7.26D-02 1.27D-01.
 AX will form    12 AO Fock derivatives at one time.
     12 vectors produced by pass  1 Test12= 1.98D-15 6.67D-09 XBig12= 9.62D-03 2.94D-02.
     12 vectors produced by pass  2 Test12= 1.98D-15 6.67D-09 XBig12= 1.09D-05 1.11D-03.
     12 vectors produced by pass  3 Test12= 1.98D-15 6.67D-09 XBig12= 6.40D-08 9.16D-05.
     12 vectors produced by pass  4 Test12= 1.98D-15 6.67D-09 XBig12= 1.05D-10 3.67D-06.
      9 vectors produced by pass  5 Test12= 1.98D-15 6.67D-09 XBig12= 7.55D-14 7.92D-08.
 Inverted reduced A of dimension    69 with in-core refinement.
 FullF1:  Do perturbations    1 to    15.
 Isotropic polarizability for W=    0.000000       16.89 Bohr**3.
 FullF1:  Do perturbations    1 to     6.
 End of Minotr Frequency-dependent properties file   721 does not exist.
 End of Minotr Frequency-dependent properties file   722 does not exist.
 Leave Link 1002 at Thu Feb 26 00:47:48 2015, MaxMem= 1073741824 cpu:      10.0
 (Enter /apps/gaussian/g09_c01/g09/l701.exe)
 Compute integral second derivatives.
 ... and contract with generalized density number  0.
 Leave Link  701 at Thu Feb 26 00:47:49 2015, MaxMem= 1073741824 cpu:       1.2
 (Enter /apps/gaussian/g09_c01/g09/l702.exe)
 L702 exits ... SP integral derivatives will be done elsewhere.
 Leave Link  702 at Thu Feb 26 00:47:49 2015, MaxMem= 1073741824 cpu:       0.1
 (Enter /apps/gaussian/g09_c01/g09/l703.exe)
 Compute integral second derivatives, UseDBF=F ICtDFT=           0.
 Integral derivatives from FoFDir, PRISM(SPDF).
 Calling FoFJK, ICntrl=    100127 FMM=F ISym2X=1 I1Cent= 0 IOpClX= 0 NMat=1 NMatS=1 NMatT=0.
 FoFCou: FMM=F IPFlag=           0 FMFlag=      100000 FMFlg1=         800
         NFxFlg=           0 DoJE=F BraDBF=F KetDBF=F FulRan=T
         Omega=  0.000000  0.000000  1.000000  0.000000  0.000000 ICntrl=  100127 IOpCl=  0
         NMat0=    1 NMatS0=    1 NMatT0=    0 NMatD0=    1 NMtDS0=    0 NMtDT0=    0
         I1Cent=           0 NGrid=           0.
 Petite list used in FoFCou.
 Leave Link  703 at Thu Feb 26 00:47:50 2015, MaxMem= 1073741824 cpu:      10.2
 (Enter /apps/gaussian/g09_c01/g09/l716.exe)
 Dipole        =-8.88178420D-16-4.99600361D-16 9.06298932D-01
 Polarizability= 1.63649722D+01 8.27252912D-06 1.63649840D+01
                 3.23027634D-06 1.68453337D-05 1.79442961D+01
 HyperPolar    = 5.60775428D+00-1.60139111D+00-5.60781071D+00
                 1.60112881D+00-3.44356461D+00-1.74390284D-04
                -3.44382383D+00-1.28290104D-04-1.27865918D-04
                 1.14452591D+00
 ***** Axes restored to original set *****
 -------------------------------------------------------------------
 Center     Atomic                   Forces (Hartrees/Bohr)
 Number     Number              X              Y              Z
 -------------------------------------------------------------------
      1        6           0.000000000    0.000000000   -0.000359172
      2        1          -0.000000163   -0.000001882   -0.000003844
      3        1          -0.000001548    0.000001082   -0.000003844
      4        1           0.000001711    0.000000800   -0.000003844
      5        7           0.000000000    0.000000000    0.000329450
      6        1           0.000000750    0.000008685    0.000013751
      7        1          -0.000007896   -0.000003693    0.000013751
      8        1           0.000007146   -0.000004992    0.000013751
 -------------------------------------------------------------------
 Cartesian Forces:  Max     0.000359172 RMS     0.000099665
 Force constants in Cartesian coordinates: 
                1             2             3             4             5 
      1  0.650752D+00
      2  0.000000D+00  0.650751D+00
      3  0.000000D+00  0.000000D+00  0.438553D+00
      4 -0.542634D-01 -0.249363D-01 -0.813889D-02  0.498980D-01
      5 -0.249365D-01 -0.319993D+00 -0.874574D-01  0.264452D-01  0.331702D+00
      6 -0.675018D-02 -0.725311D-01 -0.742892D-01  0.830821D-02  0.892785D-01
      7 -0.231965D+00  0.127533D+00 -0.716709D-01  0.455834D-02 -0.375458D-02
      8  0.127533D+00 -0.142291D+00  0.507772D-01  0.235729D-01 -0.124470D-01
      9 -0.594388D-01  0.421114D-01 -0.742892D-01  0.964872D-02 -0.461455D-02
     10 -0.275156D+00 -0.102596D+00  0.798098D-01  0.385931D-03  0.134564D-02
     11 -0.102596D+00 -0.991003D-01  0.366802D-01 -0.259819D-01 -0.827460D-02
     12  0.661889D-01  0.304197D-01 -0.742893D-01 -0.103343D-01 -0.275524D-02
     13 -0.100231D+00  0.000000D+00  0.000000D+00 -0.126244D-02  0.779072D-03
     14  0.000000D+00 -0.100230D+00  0.000000D+00  0.778908D-03  0.703865D-02
     15  0.000000D+00  0.000000D+00 -0.178675D+00  0.417705D-03  0.449212D-02
     16 -0.838294D-05  0.681629D-03 -0.172118D-03  0.482938D-03  0.594597D-04
     17  0.681478D-03  0.725095D-02 -0.185181D-02  0.594344D-04  0.111628D-02
     18 -0.319242D-02 -0.343073D-01 -0.123367D-01  0.211334D-03  0.227226D-02
     19  0.602638D-02  0.280267D-02  0.168963D-02  0.189433D-03  0.207496D-03
     20  0.280255D-02  0.121620D-02  0.776770D-03  0.803772D-03  0.339751D-03
     21  0.313072D-01  0.143890D-01 -0.123367D-01  0.510091D-03 -0.660590D-03
     22  0.484587D-02 -0.348409D-02 -0.151760D-02  0.112626D-04 -0.145779D-03
     23 -0.348423D-02  0.239669D-02  0.107487D-02 -0.741999D-03  0.518162D-03
     24 -0.281148D-01  0.199184D-01 -0.123367D-01 -0.622876D-03 -0.555162D-03
                6             7             8             9            10 
      6  0.896327D-01
      7  0.278105D-02  0.238349D+00
      8  0.103274D-01 -0.135247D+00  0.143251D+00
      9  0.506171D-02  0.731633D-01 -0.518343D-01  0.896327D-01
     10 -0.828046D-03 -0.167773D-01 -0.112548D-01  0.755326D-02  0.284153D+00
     11  0.106633D-01  0.160727D-01  0.888861D-02 -0.757215D-02  0.108802D+00
     12  0.506171D-02 -0.882068D-02 -0.604877D-02  0.506171D-02 -0.814715D-01
     13 -0.349780D-02  0.428879D-02 -0.398391D-02 -0.308101D-01  0.563811D-02
     14 -0.375959D-01 -0.398408D-02  0.148748D-02  0.218271D-01  0.320491D-02
     15 -0.207414D-01  0.368148D-02 -0.260787D-02 -0.207414D-01 -0.409931D-02
     16  0.178927D-03 -0.135720D-03 -0.616044D-03 -0.856656D-03  0.701808D-05
     17  0.192146D-02 -0.197688D-04  0.664905D-03  0.583406D-03  0.143328D-03
     18 -0.698370D-02 -0.827133D-03 -0.111457D-03  0.112876D-02  0.792222D-03
     19 -0.769166D-04  0.775856D-03  0.300561D-03 -0.834430D-03  0.100943D-02
     20 -0.103359D-02 -0.295659D-03 -0.246432D-03  0.614787D-03  0.244511D-03
     21  0.112876D-02 -0.169346D-03  0.817007D-03  0.112945D-02 -0.207350D-02
     22 -0.115206D-03  0.906465D-03 -0.303958D-03  0.157457D-02  0.740063D-03
     23 -0.103003D-02 -0.303983D-03  0.692757D-03 -0.111569D-02  0.110410D-03
     24  0.112945D-02  0.186217D-02 -0.131915D-02 -0.698370D-02  0.317042D-03
               11            12            13            14            15 
     11  0.974468D-01
     12 -0.374441D-01  0.896327D-01
     13  0.320511D-02  0.343079D-01  0.750429D+00
     14  0.138202D-03  0.157688D-01  0.000000D+00  0.750429D+00
     15 -0.188439D-02 -0.207414D-01  0.000000D+00  0.000000D+00  0.555290D+00
     16  0.739548D-03  0.949636D-03 -0.706233D-01 -0.279690D-01 -0.104567D-01
     17  0.522406D-03  0.415244D-03 -0.279688D-01 -0.368619D+00 -0.112371D+00
     18 -0.261845D-03  0.112945D-02 -0.112110D-01 -0.120479D+00 -0.104797D+00
     19  0.244536D-03 -0.175350D-02 -0.318342D+00 -0.115051D+00  0.102544D+00
     20  0.589792D-03 -0.805777D-03 -0.115051D+00 -0.120900D+00  0.471297D-01
     21 -0.953112D-03 -0.698370D-02  0.109943D+00  0.505303D-01 -0.104797D+00
     22 -0.485865D-03  0.933573D-03 -0.269898D+00  0.143020D+00 -0.920876D-01
     23 -0.210879D-03  0.450183D-03  0.143021D+00 -0.169344D+00  0.652411D-01
     24  0.772047D-03  0.112876D-02 -0.987321D-01  0.699483D-01 -0.104797D+00
               16            17            18            19            20 
     16  0.635600D-01
     17  0.302661D-01  0.386024D+00
     18  0.114151D-01  0.122676D+00  0.109016D+00
     19  0.620571D-03  0.963162D-03 -0.748239D-03  0.331620D+00
     20 -0.332905D-01 -0.107419D-01  0.153060D-01  0.124498D+00  0.117965D+00
     21 -0.146878D-01 -0.436909D-02  0.642140D-02 -0.111948D+00 -0.514525D-01
     22  0.609685D-02 -0.412489D-02  0.356014D-02 -0.218994D-01  0.202885D-01
     23  0.301287D-01 -0.162182D-01  0.149045D-01 -0.139651D-01  0.117781D-01
     24  0.136295D-01 -0.700502D-02  0.642140D-02  0.111276D-01 -0.105354D-01
               21            22            23            24 
     21  0.109016D+00
     22 -0.128813D-01  0.279197D+00
     23 -0.830100D-02 -0.154764D+00  0.170387D+00
     24  0.642140D-02  0.100533D+00 -0.712240D-01  0.109016D+00
 Force constants in internal coordinates: 
                1             2             3             4             5 
      1  0.363505D+00
      2  0.115936D-02  0.363505D+00
      3  0.115938D-02  0.115935D-02  0.363505D+00
      4  0.278316D-02  0.278310D-02  0.278302D-02  0.292086D+00
      5 -0.153976D-02  0.265603D-03  0.265302D-03  0.529096D-02  0.435255D+00
      6  0.265597D-03  0.265306D-03 -0.153973D-02  0.529077D-02  0.113317D-02
      7  0.265308D-03 -0.153977D-02  0.265601D-03  0.529081D-02  0.113314D-02
      8  0.401293D-02  0.401188D-02 -0.121658D-02 -0.266740D-01 -0.988227D-04
      9  0.401188D-02 -0.121658D-02  0.401295D-02 -0.266740D-01 -0.985191D-04
     10  0.109165D-03 -0.359264D-02 -0.359240D-02  0.277226D-01  0.265656D-02
     11 -0.121659D-02  0.401293D-02  0.401191D-02 -0.266740D-01  0.918915D-03
     12 -0.359237D-02  0.109109D-03 -0.359265D-02  0.277226D-01 -0.170365D-02
     13 -0.359265D-02 -0.359234D-02  0.109130D-03  0.277226D-01 -0.170285D-02
     14  0.853487D-03 -0.952430D-05 -0.102422D-04  0.146066D-01 -0.496481D-02
     15 -0.953864D-05 -0.102469D-04  0.853462D-03  0.146067D-01 -0.352461D-02
     16 -0.102628D-04  0.853462D-03 -0.948128D-05  0.146067D-01 -0.352405D-02
     17 -0.400954D-03 -0.954722D-04 -0.400761D-03 -0.157188D-01  0.644883D-02
     18 -0.400745D-03 -0.400954D-03 -0.954798D-04 -0.157188D-01  0.645358D-02
     19 -0.954634D-04 -0.400742D-03 -0.400978D-03 -0.157188D-01  0.257601D-04
     20  0.000000D+00 -0.274226D-02  0.274248D-02  0.000000D+00  0.338990D-05
     21  0.670986D-04 -0.287768D-02  0.281006D-02  0.000000D+00  0.240386D-02
     22 -0.683311D-04 -0.281008D-02  0.287788D-02  0.000000D+00 -0.240354D-02
     23  0.281007D-02  0.670940D-04 -0.287769D-02  0.000000D+00  0.435874D-03
     24  0.287790D-02 -0.683261D-04 -0.281012D-02  0.000000D+00  0.283634D-02
     25  0.274247D-02  0.000000D+00 -0.274230D-02  0.000000D+00 -0.197105D-02
     26 -0.281010D-02  0.287788D-02 -0.683060D-04  0.000000D+00 -0.429918D-03
     27 -0.274227D-02  0.274246D-02  0.000000D+00  0.000000D+00  0.197055D-02
     28 -0.287770D-02  0.281006D-02  0.670911D-04  0.000000D+00 -0.283685D-02
                6             7             8             9            10 
      6  0.435255D+00
      7  0.113314D-02  0.435255D+00
      8  0.918912D-03 -0.985183D-04  0.542787D-01
      9 -0.988267D-04  0.918910D-03  0.123025D-01  0.542787D-01
     10 -0.170366D-02 -0.170284D-02 -0.468207D-01 -0.468185D-01  0.134858D+00
     11 -0.985351D-04 -0.988161D-04  0.123025D-01  0.123025D-01  0.116545D-01
     12 -0.170282D-02  0.265655D-02 -0.468185D-01  0.116545D-01 -0.248253D-01
     13  0.265656D-02 -0.170365D-02  0.116545D-01 -0.468207D-01 -0.248253D-01
     14 -0.352408D-02 -0.352460D-02 -0.429110D-02 -0.429107D-02  0.175266D-01
     15 -0.496480D-02 -0.352404D-02  0.353269D-02 -0.429109D-02 -0.613890D-02
     16 -0.352461D-02 -0.496483D-02 -0.429107D-02  0.353268D-02 -0.613976D-02
     17  0.645359D-02  0.257602D-04  0.786955D-03  0.386018D-02 -0.500835D-02
     18  0.257626D-04  0.644883D-02  0.386018D-02  0.786803D-03 -0.500782D-02
     19  0.644884D-02  0.645358D-02  0.786802D-03  0.786958D-03  0.436862D-02
     20 -0.197106D-02  0.197054D-02 -0.603412D-02  0.603308D-02  0.119150D-05
     21  0.435861D-03 -0.283684D-02 -0.555058D-02  0.506619D-02  0.142934D-02
     22  0.283636D-02 -0.429925D-03 -0.506722D-02  0.554973D-02 -0.142704D-02
     23 -0.283684D-02  0.240385D-02  0.506619D-02  0.483559D-03  0.735507D-02
     24 -0.429919D-03 -0.240353D-02  0.554972D-02 -0.483329D-03  0.878322D-02
[...]
      3        1          -0.000000021   -0.000000027    0.000000000
      4        1          -0.000000013    0.000000032    0.000000000
      5        7           0.000000000    0.000000000    0.000000002
      6        1          -0.000000033    0.000000002   -0.000000001
      7        1           0.000000014   -0.000000029   -0.000000001
      8        1           0.000000018    0.000000027   -0.000000001
 -------------------------------------------------------------------
 Cartesian Forces:  Max     0.000000034 RMS     0.000000017
 Force constants in Cartesian coordinates: 
                1             2             3             4             5 
      1  0.650857D+00
      2  0.000000D+00  0.650856D+00
      3  0.000000D+00  0.000000D+00  0.437259D+00
      4 -0.542661D-01 -0.249436D-01 -0.813574D-02  0.498972D-01
      5 -0.249437D-01 -0.320063D+00 -0.874196D-01  0.264521D-01  0.331764D+00
      6 -0.674889D-02 -0.725142D-01 -0.742373D-01  0.830440D-02  0.892342D-01
      7 -0.232012D+00  0.127565D+00 -0.716398D-01  0.456193D-02 -0.375748D-02
      8  0.127565D+00 -0.142317D+00  0.507556D-01  0.235718D-01 -0.124402D-01
      9 -0.594247D-01  0.421018D-01 -0.742373D-01  0.964563D-02 -0.461196D-02
     10 -0.275216D+00 -0.102621D+00  0.797755D-01  0.390198D-03  0.134893D-02
     11 -0.102622D+00 -0.991134D-01  0.366641D-01 -0.259803D-01 -0.826845D-02
     12  0.661735D-01  0.304123D-01 -0.742373D-01 -0.103308D-01 -0.275319D-02
     13 -0.100221D+00  0.000000D+00  0.000000D+00 -0.126379D-02  0.779389D-03
     14  0.000000D+00 -0.100221D+00  0.000000D+00  0.779261D-03  0.704047D-02
     15  0.000000D+00  0.000000D+00 -0.177630D+00  0.418068D-03  0.449553D-02
     16 -0.110404D-04  0.681719D-03 -0.171943D-03  0.480380D-03  0.592311D-04
     17  0.681608D-03  0.724986D-02 -0.184972D-02  0.592095D-04  0.111131D-02
     18 -0.318852D-02 -0.342664D-01 -0.123056D-01  0.211324D-03  0.227193D-02
     19  0.602500D-02  0.280328D-02  0.168774D-02  0.189068D-03  0.207351D-03
     20  0.280320D-02  0.121384D-02  0.775876D-03  0.802527D-03  0.338913D-03
     21  0.312698D-01  0.143719D-01 -0.123056D-01  0.510888D-03 -0.661269D-03
     22  0.484429D-02 -0.348485D-02 -0.151588D-02  0.111079D-04 -0.145760D-03
     23 -0.348494D-02  0.239452D-02  0.107368D-02 -0.740892D-03  0.517063D-03
     24 -0.280814D-01  0.198945D-01 -0.123056D-01 -0.623780D-03 -0.555676D-03
                6             7             8             9            10 
      6  0.895645D-01
      7  0.278107D-02  0.238389D+00
      8  0.103233D-01 -0.135278D+00  0.143272D+00
      9  0.506311D-02  0.731269D-01 -0.518089D-01  0.895645D-01
     10 -0.828742D-03 -0.167695D-01 -0.112561D-01  0.754974D-02  0.284205D+00
     11  0.106593D-01  0.160732D-01  0.889125D-02 -0.757015D-02  0.108826D+00
     12  0.506311D-02 -0.881689D-02 -0.604738D-02  0.506311D-02 -0.814313D-01
     13 -0.349482D-02  0.428953D-02 -0.398547D-02 -0.307832D-01  0.563944D-02
     14 -0.375631D-01 -0.398560D-02  0.148722D-02  0.218082D-01  0.320613D-02
     15 -0.207275D-01  0.368425D-02 -0.260989D-02 -0.207274D-01 -0.410244D-02
     16  0.179020D-03 -0.135838D-03 -0.614943D-03 -0.856704D-03  0.664238D-05
     17  0.192273D-02 -0.197662D-04  0.663819D-03  0.582303D-03  0.143182D-03
     18 -0.698263D-02 -0.828120D-03 -0.111808D-03  0.112799D-02  0.793119D-03
     19 -0.759378D-04  0.774506D-03  0.300144D-03 -0.833385D-03  0.100487D-02
     20 -0.103308D-02 -0.294988D-03 -0.246335D-03  0.615187D-03  0.243581D-03
     21  0.112799D-02 -0.169339D-03  0.818047D-03  0.112864D-02 -0.207321D-02
     22 -0.116075D-03  0.902294D-03 -0.302801D-03  0.157562D-02  0.738742D-03
     23 -0.102933D-02 -0.302823D-03  0.689400D-03 -0.111640D-02  0.110004D-03
     24  0.112864D-02  0.186188D-02 -0.131897D-02 -0.698263D-02  0.317231D-03
               11            12            13            14            15 
     11  0.974557D-01
     12 -0.374253D-01  0.895645D-01
     13  0.320630D-02  0.342780D-01  0.750450D+00
     14  0.137358D-03  0.157549D-01  0.000000D+00  0.750450D+00
     15 -0.188578D-02 -0.207274D-01  0.000000D+00  0.000000D+00  0.554131D+00
     16  0.738314D-03  0.949460D-03 -0.706218D-01 -0.279699D-01 -0.104551D-01
     17  0.521528D-03  0.414139D-03 -0.279698D-01 -0.368641D+00 -0.112359D+00
     18 -0.262371D-03  0.112864D-02 -0.112129D-01 -0.120505D+00 -0.104773D+00
     19  0.243603D-03 -0.175464D-02 -0.318359D+00 -0.115061D+00  0.102534D+00
     20  0.586827D-03 -0.806330D-03 -0.115061D+00 -0.120904D+00  0.471254D-01
     21 -0.952951D-03 -0.698263D-02  0.109966D+00  0.505416D-01 -0.104773D+00
     22 -0.485173D-03  0.932641D-03 -0.269914D+00  0.143031D+00 -0.920787D-01
     23 -0.210761D-03  0.450775D-03  0.143031D+00 -0.169349D+00  0.652342D-01
     24  0.773077D-03  0.112799D-02 -0.987536D-01  0.699629D-01 -0.104773D+00
               16            17            18            19            20 
     16  0.635609D-01
     17  0.302667D-01  0.386046D+00
     18  0.114134D-01  0.122664D+00  0.108965D+00
     19  0.622771D-03  0.967010D-03 -0.748057D-03  0.331637D+00
     20 -0.332897D-01 -0.107384D-01  0.153053D-01  0.124507D+00  0.117970D+00
     21 -0.146870D-01 -0.436915D-02  0.641957D-02 -0.111937D+00 -0.514477D-01
     22  0.609804D-02 -0.412816D-02  0.355970D-02 -0.218942D-01  0.202895D-01
     23  0.301285D-01 -0.162136D-01  0.149039D-01 -0.139672D-01  0.117786D-01
     24  0.136288D-01 -0.700483D-02  0.641957D-02  0.111273D-01 -0.105347D-01
               21            22            23            24 
     21  0.108965D+00
     22 -0.128808D-01  0.279213D+00
     23 -0.830050D-02 -0.154774D+00  0.170394D+00
     24  0.641957D-02  0.100523D+00 -0.712163D-01  0.108965D+00
 Red2BG is reusing G-inverse.
 Force constants in internal coordinates: 
                1             2             3             4             5 
      1  0.363529D+00
      2  0.115657D-02  0.363529D+00
      3  0.115659D-02  0.115656D-02  0.363529D+00
      4  0.277155D-02  0.277149D-02  0.277141D-02  0.290907D+00
      5 -0.153607D-02  0.265946D-03  0.265632D-03  0.527753D-02  0.435260D+00
      6  0.265939D-03  0.265636D-03 -0.153603D-02  0.527734D-02  0.112899D-02
      7  0.265638D-03 -0.153608D-02  0.265943D-03  0.527738D-02  0.112896D-02
      8  0.401622D-02  0.401519D-02 -0.122048D-02 -0.266615D-01 -0.976584D-04
      9  0.401518D-02 -0.122049D-02  0.401624D-02 -0.266615D-01 -0.973792D-04
     10  0.932194D-04 -0.358780D-02 -0.358758D-02  0.277232D-01  0.264982D-02
     11 -0.122049D-02  0.401622D-02  0.401521D-02 -0.266615D-01  0.917500D-03
     12 -0.358754D-02  0.931633D-04 -0.358781D-02  0.277232D-01 -0.170096D-02
     13 -0.358782D-02 -0.358751D-02  0.931845D-04  0.277233D-01 -0.170010D-02
     14  0.848284D-03 -0.741361D-05 -0.810882D-05  0.145837D-01 -0.497138D-02
     15 -0.742807D-05 -0.811334D-05  0.848259D-03  0.145838D-01 -0.352339D-02
     16 -0.812939D-05  0.848259D-03 -0.737080D-05  0.145838D-01 -0.352282D-02
     17 -0.399893D-03 -0.964417D-04 -0.399712D-03 -0.156923D-01  0.645068D-02
     18 -0.399697D-03 -0.399893D-03 -0.964493D-04 -0.156923D-01  0.645545D-02
     19 -0.964328D-04 -0.399693D-03 -0.399917D-03 -0.156923D-01  0.249182D-04
     20  0.000000D+00 -0.274101D-02  0.274124D-02  0.000000D+00  0.340430D-05
     21  0.662651D-04 -0.287475D-02  0.280797D-02  0.000000D+00  0.240309D-02
     22 -0.674760D-04 -0.280799D-02  0.287495D-02  0.000000D+00 -0.240276D-02
     23  0.280798D-02  0.662605D-04 -0.287476D-02  0.000000D+00  0.434577D-03
     24  0.287497D-02 -0.674710D-04 -0.280803D-02  0.000000D+00  0.283426D-02
     25  0.274123D-02  0.000000D+00 -0.274105D-02  0.000000D+00 -0.197159D-02
     26 -0.280801D-02  0.287495D-02 -0.674510D-04  0.000000D+00 -0.428603D-03
     27 -0.274103D-02  0.274121D-02  0.000000D+00  0.000000D+00  0.197108D-02
     28 -0.287477D-02  0.280797D-02  0.662576D-04  0.000000D+00 -0.283477D-02
                6             7             8             9            10 
      6  0.435260D+00
      7  0.112896D-02  0.435260D+00
      8  0.917497D-03 -0.973785D-04  0.542494D-01
      9 -0.976625D-04  0.917495D-03  0.122963D-01  0.542494D-01
     10 -0.170097D-02 -0.170008D-02 -0.468050D-01 -0.468028D-01  0.134845D+00
     11 -0.973953D-04 -0.976519D-04  0.122963D-01  0.122963D-01  0.116260D-01
     12 -0.170006D-02  0.264981D-02 -0.468028D-01  0.116260D-01 -0.247994D-01
     13  0.264982D-02 -0.170096D-02  0.116260D-01 -0.468050D-01 -0.247994D-01
     14 -0.352286D-02 -0.352338D-02 -0.429057D-02 -0.429057D-02  0.175312D-01
     15 -0.497137D-02 -0.352281D-02  0.353086D-02 -0.429056D-02 -0.613951D-02
     16 -0.352339D-02 -0.497140D-02 -0.429057D-02  0.353085D-02 -0.614031D-02
     17  0.645546D-02  0.249184D-04  0.787416D-03  0.385946D-02 -0.500931D-02
     18  0.249207D-04  0.645069D-02  0.385947D-02  0.787270D-03 -0.500881D-02
     19  0.645070D-02  0.645545D-02  0.787269D-03  0.787419D-03  0.436756D-02
     20 -0.197159D-02  0.197108D-02 -0.603743D-02  0.603640D-02  0.118057D-05
     21  0.434565D-03 -0.283476D-02 -0.555418D-02  0.507009D-02  0.142979D-02
     22  0.283428D-02 -0.428610D-03 -0.507111D-02  0.555334D-02 -0.142751D-02
     23 -0.283476D-02  0.240309D-02  0.507009D-02  0.483274D-03  0.734851D-02
     24 -0.428604D-03 -0.240275D-02  0.555334D-02 -0.483042D-03  0.877711D-02
     25  0.197111D-02  0.340026D-05  0.603641D-02  0.000000D+00  0.591982D-02
     26 -0.240275D-02  0.283426D-02 -0.483049D-03 -0.507112D-02 -0.734876D-02
     27  0.340208D-05 -0.197158D-02  0.000000D+00 -0.603743D-02 -0.592015D-02
     28  0.240311D-02  0.434573D-03  0.483272D-03 -0.555417D-02 -0.877745D-02
               11            12            13            14            15 
     11  0.542494D-01
     12 -0.468050D-01  0.134845D+00
     13 -0.468029D-01 -0.247994D-01  0.134845D+00
     14  0.353085D-02 -0.613949D-02 -0.614032D-02  0.104273D+00
     15 -0.429056D-02 -0.614034D-02  0.175312D-01 -0.187039D-01  0.104273D+00
     16 -0.429058D-02  0.175312D-01 -0.613951D-02 -0.187039D-01 -0.187039D-01
     17  0.787272D-03  0.436755D-02 -0.500880D-02 -0.427728D-01 -0.427733D-01
     18  0.787419D-03 -0.500932D-02  0.436757D-02 -0.427732D-01  0.135989D-01
     19  0.385947D-02 -0.500881D-02 -0.500930D-02  0.135989D-01 -0.427728D-01
     20  0.000000D+00 -0.592014D-02  0.591983D-02  0.000000D+00 -0.273724D-02
     21  0.483270D-03 -0.877745D-02  0.734852D-02  0.416424D-02  0.142693D-02
     22 -0.483046D-03 -0.734877D-02  0.877712D-02 -0.416463D-02  0.559163D-02
     23 -0.555418D-02  0.142979D-02 -0.877745D-02  0.142693D-02 -0.559155D-02
     24 -0.507111D-02 -0.142751D-02 -0.734876D-02  0.559163D-02 -0.142739D-02
     25 -0.603742D-02  0.116810D-05 -0.592015D-02 -0.273723D-02  0.273731D-02
     26  0.555334D-02  0.877713D-02 -0.142751D-02 -0.142738D-02 -0.416464D-02
     27  0.603641D-02  0.591982D-02  0.118000D-05  0.273732D-02  0.000000D+00
     28  0.507009D-02  0.734850D-02  0.142978D-02 -0.559154D-02  0.416423D-02
               16            17            18            19            20 
     16  0.104273D+00
     17  0.135989D-01  0.570987D-01
     18 -0.427728D-01  0.101586D-01  0.570987D-01
     19 -0.427732D-01  0.101586D-01  0.101586D-01  0.570987D-01
     20  0.273731D-02 -0.764177D-02  0.764218D-02  0.000000D+00  0.151007D-01
     21 -0.559155D-02  0.649061D-02  0.575852D-03 -0.706604D-02  0.346932D-02
     22 -0.142738D-02 -0.575732D-03 -0.649020D-02  0.706634D-02  0.346939D-02
     23  0.416424D-02 -0.706604D-02  0.649060D-02  0.575851D-03  0.441941D-02
     24 -0.416462D-02  0.706634D-02 -0.575727D-03 -0.649020D-02 -0.721202D-02
     25  0.000000D+00  0.000000D+00 -0.764178D-02  0.764218D-02 -0.721195D-02
     26  0.559163D-02 -0.649019D-02  0.706634D-02 -0.575724D-03  0.441946D-02
     27 -0.273723D-02  0.764218D-02  0.000000D+00 -0.764178D-02 -0.721196D-02
     28  0.142694D-02  0.575842D-03 -0.706604D-02  0.649060D-02 -0.721189D-02
               21            22            23            24            25 
     21  0.155908D-01
     22  0.371440D-02  0.155909D-01
     23 -0.745698D-02 -0.770206D-02  0.155908D-01
     24  0.466449D-02 -0.745704D-02  0.371440D-02  0.155909D-01
     25 -0.721190D-02  0.441946D-02  0.346932D-02  0.346937D-02  0.151007D-01
     26 -0.770206D-02 -0.745704D-02  0.466449D-02 -0.745704D-02 -0.721202D-02
     27  0.441941D-02 -0.721202D-02 -0.721190D-02  0.441946D-02 -0.721197D-02
     28 -0.745698D-02  0.466448D-02 -0.745698D-02 -0.770207D-02  0.441940D-02
               26            27            28 
     26  0.155909D-01
     27  0.346938D-02  0.151007D-01
     28  0.371440D-02  0.346932D-02  0.155908D-01
 Leave Link  716 at Thu Feb 26 00:48:02 2015, MaxMem= 1073741824 cpu:       0.1
 (Enter /apps/gaussian/g09_c01/g09/l9999.exe)
 1\1\GINC-CX1-1-8-1\Freq\RPBE1PBE\6-31G(d)\C1H6N1(1+)\JMF02\26-Feb-2015
 \0\\#p opt(VeryTight,CalcAll,Raman) Integral(Grid=UltraFine) PBE1PBE/6
 -31g*\\Autjob by noodles.sh | Great noodly basis sets\\1,1\C,-0.000000
 0526,0.0000000526,-0.7947352676\H,-0.0957789747,-1.0294035766,-1.13983
 54909\H,-0.8436002852,0.5976488469,-1.1398354909\H,0.9393791021,0.4317
 548876,-1.1398354909\N,-0.0000000526,0.0000000526,0.7067012171\H,0.088
 3960412,0.9497951525,1.0848131563\H,-0.8667447844,-0.3983442345,1.0848
 131563\H,0.7783485854,-0.5514507601,1.0848131563\\Version=EM64L-G09Rev
 C.01\State=1-A\HF=-96.0941348\RMSD=5.660e-09\RMSF=1.678e-08\ZeroPoint=
 0.0804899\Thermal=0.083923\Dipole=0.,0.,0.9059162\DipoleDeriv=0.068973
 1,0.0000014,0.0000021,-0.0000003,0.0689721,0.0000012,-0.0000018,0.0000
 003,0.5029848,0.1383558,-0.009071,-0.0008525,-0.0090702,0.0417025,-0.0
 091697,0.0046608,0.0500863,0.0742013,0.0737215,0.0463868,-0.0075152,0.
 0463868,0.106337,0.0053234,0.0410461,-0.0290797,0.0742015,0.0580098,-0
 .0373166,0.0083665,-0.0373161,0.122048,0.003846,-0.0457059,-0.0210066,
 0.0742017,-0.2312109,0.0000003,0.0000014,0.0000022,-0.2312112,0.000000
 9,-0.0000022,0.0000008,-0.4390766,0.2771458,0.0038,0.0038827,0.0038002
 ,0.3176211,0.0417069,0.0025692,0.027599,0.2378284,0.3107931,0.0156262,
 -0.0380613,0.0156265,0.2839737,-0.0174915,-0.0251857,-0.0115745,0.2378
 289,0.3042117,-0.019427,0.034178,-0.0194273,0.2905561,-0.0242161,0.022
 6174,-0.016025,0.2378287\Polar=16.3661358,-0.0000082,16.366124,0.00001
 68,-0.0000032,17.952706\PolarDeriv=-0.893069,-3.1254906,0.8931277,2.39
 96532,-0.0000303,0.0000064,-3.1255097,0.8931507,3.1255004,0.0000418,2.
 3996501,0.0000042,1.4836529,-0.000007,1.4836368,0.0000438,-0.0000022,-
 2.2583553,-0.2489421,-1.2538424,-0.3566052,-1.2188777,-0.0794287,-0.13
 54446,-0.2303271,-0.4518412,-6.2773707,-0.0794495,-2.0653745,-1.455694
 3,-0.368901,-0.0459143,-0.8582961,-0.2103933,-2.2611714,-1.7029351,-4.
 1663406,2.1265237,-1.1667165,-1.7849614,0.4062704,-1.1929433,1.5322573
 ,-2.0054925,2.2459615,0.4062493,-1.4993017,0.8451537,-0.6961753,0.2348
 678,-0.5310191,-1.8530481,1.3127872,-1.7029496,5.1737709,1.7818439,0.7
 648092,-1.9225423,-0.3268183,1.3283873,1.352599,1.6988149,1.3768796,-0
 .3268241,-1.3617079,0.6105362,-0.7757337,-0.1889538,-0.4514854,2.06341
 97,0.9483826,-1.7029443,0.7351352,2.5719866,-0.7351177,-2.3395072,-0.0
 000097,-0.0000004,2.5719744,-0.7351386,-2.571983,-0.0000241,-2.3395208
 ,-0.0000099,-2.0410251,-0.0000252,-2.0410208,-0.0000044,0.,1.6420481,0
 .1923186,0.9499483,0.2855029,1.0099852,0.1149381,0.1594229,0.2164198,0
 .3537642,4.9176767,0.1149311,2.234184,1.7131256,0.3478416,0.0847908,1.
 2509497,0.1925085,2.0684861,1.9083772,-4.0487357,-1.3924818,-0.6364216
 ,2.0276672,0.4726319,-1.5633189,-1.0848325,-1.3058069,-1.0684252,0.472
 6163,1.2165011,-0.7184889,1.0986116,0.3486642,0.5001912,-1.8876164,-0.
 8675332,1.9083843,3.2558959,-1.6584933,0.9514455,1.8286016,-0.5875546,
 1.4038974,-1.2326061,1.5525748,-1.7482343,-0.5875611,1.4155714,-0.9946
 312,0.9517403,-0.4334454,0.6470409,1.695105,-1.2009537,1.9083755\Hyper
 Polar=1.6019583,5.609683,-1.6022208,-5.609626,-3.4430732,0.0001742,-3.
 4428133,-0.0001278,0.0001286,1.0791459\PG=C03 [C3(C1N1),X(H6)]\NImag=0
 \\0.65085668,-0.00000022,0.65085629,-0.00000006,-0.00000016,0.43725861
 ,-0.05426608,-0.02494364,-0.00813574,0.04989720,-0.02494374,-0.3200630
 2,-0.08741963,0.02645209,0.33176387,-0.00674889,-0.07251415,-0.0742372
 9,0.00830440,0.08923422,0.08956453,-0.23201197,0.12756544,-0.07163979,
 0.00456193,-0.00375748,0.00278107,0.23838902,0.12756539,-0.14231722,0.
 05075560,0.02357179,-0.01244018,0.01032334,-0.13527789,0.14327205,-0.0
 5942470,0.04210180,-0.07423731,0.00964563,-0.00461196,0.00506311,0.073
 12690,-0.05180893,0.08956453,-0.27521567,-0.10262149,0.07977552,0.0003
 9020,0.00134893,-0.00082874,-0.01676950,-0.01125608,0.00754974,0.28420
 539,-0.10262171,-0.09911341,0.03666408,-0.02598034,-0.00826845,0.01065
 935,0.01607319,0.00889125,-0.00757015,0.10882580,0.09745568,0.06617353
 ,0.03041232,-0.07423734,-0.01033081,-0.00275319,0.00506311,-0.00881689
 ,-0.00604738,0.00506311,-0.08143130,-0.03742529,0.08956453,-0.10022117
 ,-0.00000037,0.00000026,-0.00126379,0.00077939,-0.00349482,0.00428953,
 -0.00398547,-0.03078320,0.00563944,0.00320630,0.03427797,0.75044980,0.
 00000031,-0.10022086,0.00000040,0.00077926,0.00704047,-0.03756311,-0.0
 0398560,0.00148722,0.02180815,0.00320613,0.00013736,0.01575494,-0.0000
 0022,0.75044980,0.00000028,0.00000023,-0.17762992,0.00041807,0.0044955
 3,-0.02072746,0.00368425,-0.00260989,-0.02072742,-0.00410244,-0.001885
 78,-0.02072739,-0.00000004,-0.00000029,0.55413129,-0.00001104,0.000681
 72,-0.00017194,0.00048038,0.00005923,0.00017902,-0.00013584,-0.0006149
 4,-0.00085670,0.00000664,0.00073831,0.00094946,-0.07062181,-0.02796990
 ,-0.01045511,0.06356090,0.00068161,0.00724986,-0.00184972,0.00005921,0
 .00111131,0.00192273,-0.00001977,0.00066382,0.00058230,0.00014318,0.00
 052153,0.00041414,-0.02796976,-0.36864085,-0.11235946,0.03026675,0.386
 04630,-0.00318852,-0.03426642,-0.01230562,0.00021132,0.00227193,-0.006
 98263,-0.00082812,-0.00011181,0.00112799,0.00079312,-0.00026237,0.0011
 2864,-0.01121286,-0.12050460,-0.10477300,0.01141343,0.12266401,0.10896
 549,0.00602500,0.00280328,0.00168774,0.00018907,0.00020735,-0.00007594
 ,0.00077451,0.00030014,-0.00083339,0.00100487,0.00024360,-0.00175464,-
 0.31835867,-0.11506109,0.10253380,0.00062277,0.00096701,-0.00074806,0.
 33163672,0.00280320,0.00121384,0.00077588,0.00080253,0.00033891,-0.001
 03308,-0.00029499,-0.00024634,0.00061519,0.00024358,0.00058683,-0.0008
 0633,-0.11506109,-0.12090396,0.04712543,-0.03328968,-0.01073838,0.0153
 0534,0.12450690,0.11797048,0.03126982,0.01437187,-0.01230558,0.0005108
 9,-0.00066127,0.00112799,-0.00016934,0.00081805,0.00112864,-0.00207321
 ,-0.00095295,-0.00698263,0.10996645,0.05054163,-0.10477305,-0.01468701
 ,-0.00436915,0.00641957,-0.11193686,-0.05144768,0.10896549,0.00484429,
 -0.00348485,-0.00151588,0.00001111,-0.00014576,-0.00011607,0.00090229,
 -0.00030280,0.00157562,0.00073874,-0.00048517,0.00093264,-0.26991350,0
 .14303095,-0.09207868,0.00609804,-0.00412816,0.00355970,-0.02189422,0.
 02028949,-0.01288078,0.27921318,-0.00348494,0.00239452,0.00107368,-0.0
 0074089,0.00051706,-0.00102933,-0.00030282,0.00068940,-0.00111640,0.00
 011000,-0.00021076,0.00045078,0.14303112,-0.16934918,0.06523420,0.0301
 2854,-0.01621364,0.01490390,-0.01396720,0.01177861,-0.00830050,-0.1547
 7365,0.17039402,-0.02808135,0.01989453,-0.01230557,-0.00062378,-0.0005
 5568,0.00112864,0.00186188,-0.00131897,-0.00698263,0.00031723,0.000773
 08,0.00112799,-0.09875364,0.06996294,-0.10477304,0.01362884,-0.0070048
 3,0.00641957,0.01112730,-0.01053474,0.00641957,0.10052343,-0.07121633,
 0.10896549\\0.,0.,0.,-0.00000003,0.,0.,0.00000002,0.00000003,0.,0.0000
 0001,-0.00000003,0.,0.,0.,0.,0.00000003,0.,0.,-0.00000001,0.00000003,0
 .,-0.00000002,-0.00000003,0.\\\@


 IF YOU'RE NOT PART OF THE SOLUTION,
 THEN YOU'RE PART OF THE PRECIPITATE.
 Job cpu time:  0 days  0 hours  3 minutes  9.2 seconds.
 File lengths (MBytes):  RWF=      5 Int=      0 D2E=      0 Chk=      1 Scr=      1
 Normal termination of Gaussian 09 at Thu Feb 26 00:48:02 2015.
