 Entering Gaussian System, Link 0=g03
 Input=MA_PBE1PBE_AUG-cc-pVDZ.com
 Output=MA_PBE1PBE_AUG-cc-pVDZ.log
 Initial command:
 /apps/gaussian/g09_c01/g09/l1.exe /tmp/pbs.8910300.cx1b/Gau-12306.inp -scrdir=/tmp/pbs.8910300.cx1b/
 Entering Link 1 = /apps/gaussian/g09_c01/g09/l1.exe PID=     12314.
  
 Copyright (c) 1988,1990,1992,1993,1995,1998,2003,2009,2011,
            Gaussian, Inc.  All Rights Reserved.
  
 This is part of the Gaussian(R) 09 program.  It is based on
 the Gaussian(R) 03 system (copyright 2003, Gaussian, Inc.),
 the Gaussian(R) 98 system (copyright 1998, Gaussian, Inc.),
 the Gaussian(R) 94 system (copyright 1995, Gaussian, Inc.),
 the Gaussian 92(TM) system (copyright 1992, Gaussian, Inc.),
 the Gaussian 90(TM) system (copyright 1990, Gaussian, Inc.),
 the Gaussian 88(TM) system (copyright 1988, Gaussian, Inc.),
 the Gaussian 86(TM) system (copyright 1986, Carnegie Mellon
 University), and the Gaussian 82(TM) system (copyright 1983,
 Carnegie Mellon University). Gaussian is a federally registered
 trademark of Gaussian, Inc.
  
 This software contains proprietary and confidential information,
 including trade secrets, belonging to Gaussian, Inc.
  
 This software is provided under written license and may be
 used, copied, transmitted, or stored only in accord with that
 written license.
  
 The following legend is applicable only to US Government
 contracts under FAR:
  
                    RESTRICTED RIGHTS LEGEND
  
 Use, reproduction and disclosure by the US Government is
 subject to restrictions as set forth in subparagraphs (a)
 and (c) of the Commercial Computer Software - Restricted
 Rights clause in FAR 52.227-19.
  
 Gaussian, Inc.
 340 Quinnipiac St., Bldg. 40, Wallingford CT 06492
  
  
 ---------------------------------------------------------------
 Warning -- This program may not be used in any manner that
 competes with the business of Gaussian, Inc. or will provide
 assistance to any competitor of Gaussian, Inc.  The licensee
 of this program is prohibited from giving any competitor of
 Gaussian, Inc. access to this program.  By using this program,
 the user acknowledges that Gaussian, Inc. is engaged in the
 business of creating and licensing software in the field of
 computational chemistry and represents and warrants to the
 licensee that it is not a competitor of Gaussian, Inc. and that
 it will not use this program in any manner prohibited above.
 ---------------------------------------------------------------
  

 Cite this work as:
 Gaussian 09, Revision C.01,
 M. J. Frisch, G. W. Trucks, H. B. Schlegel, G. E. Scuseria, 
 M. A. Robb, J. R. Cheeseman, G. Scalmani, V. Barone, B. Mennucci, 
 G. A. Petersson, H. Nakatsuji, M. Caricato, X. Li, H. P. Hratchian, 
 A. F. Izmaylov, J. Bloino, G. Zheng, J. L. Sonnenberg, M. Hada, 
 M. Ehara, K. Toyota, R. Fukuda, J. Hasegawa, M. Ishida, T. Nakajima, 
 Y. Honda, O. Kitao, H. Nakai, T. Vreven, J. A. Montgomery, Jr., 
 J. E. Peralta, F. Ogliaro, M. Bearpark, J. J. Heyd, E. Brothers, 
 K. N. Kudin, V. N. Staroverov, T. Keith, R. Kobayashi, J. Normand, 
 K. Raghavachari, A. Rendell, J. C. Burant, S. S. Iyengar, J. Tomasi, 
 M. Cossi, N. Rega, J. M. Millam, M. Klene, J. E. Knox, J. B. Cross, 
 V. Bakken, C. Adamo, J. Jaramillo, R. Gomperts, R. E. Stratmann, 
 O. Yazyev, A. J. Austin, R. Cammi, C. Pomelli, J. W. Ochterski, 
 R. L. Martin, K. Morokuma, V. G. Zakrzewski, G. A. Voth, 
 P. Salvador, J. J. Dannenberg, S. Dapprich, A. D. Daniels, 
 O. Farkas, J. B. Foresman, J. V. Ortiz, J. Cioslowski, 
 and D. J. Fox, Gaussian, Inc., Wallingford CT, 2010.
 
 ******************************************
 Gaussian 09:  EM64L-G09RevC.01 23-Sep-2011
                26-Feb-2015 
 ******************************************
 %Chk=MA_PBE1PBE_AUG-cc-pVDZ.chk
 %Mem=8Gb
 %nproc=8
 Will use up to    8 processors via shared memory.
 ----------------------------------------------------------------------
 #p opt(VeryTight,CalcAll,Raman) Integral(Grid=UltraFine) PBE1PBE/AUG-c
 c-pVDZ
 ----------------------------------------------------------------------
 1/7=1,10=4,14=-1,18=20,19=15,26=3,38=1/1,3;
 2/9=110,12=2,17=6,18=5,40=1/2;
 3/5=16,7=10,11=2,16=1,25=1,30=1,71=2,74=-13,75=-5/1,2,3;
 4//1;
 5/5=2,38=5/2;
 8/6=4,10=90,11=11/1;
 10/13=10,15=4/2;
 11/6=3,8=1,9=11,15=111,16=1/1,2,10;
 10/6=1/2;
 6/7=2,8=2,9=2,10=2,18=1,28=1/1;
 7/10=1,25=1/1,2,3,16;
 1/7=1,10=4,14=-1,18=20,19=15/3(3);
 2/9=110/2;
 7/8=1,9=1,25=1,44=-1/16;
 99//99;
 2/9=110/2;
 3/5=16,7=10,11=2,16=1,25=1,30=1,71=2,74=-13,75=-5/1,2,3;
 4/5=5,16=3/1;
 5/5=2,38=5/2;
 8/6=4,10=90,11=11/1;
 10/13=10,15=4/2;
 11/6=3,8=1,9=11,15=111,16=1/1,2,10;
 10/6=1/2;
 7/10=1,25=1/1,2,3,16;
 1/7=1,10=4,14=-1,18=20,19=15/3(-9);
 2/9=110/2;
 6/7=2,8=2,9=2,10=2,18=1,19=2,28=1/1;
 7/8=1,9=1,25=1,44=-1/16;
 99//99;
 Leave Link    1 at Thu Feb 26 00:47:45 2015, MaxMem= 1073741824 cpu:       0.3
 (Enter /apps/gaussian/g09_c01/g09/l101.exe)
 ----------------------------------------------
 Autjob by noodles.sh | Great noodly basis sets
 ----------------------------------------------
 Charge =  1 Multiplicity = 1
 Symbolic Z-Matrix:
 C                     0.        0.       -0.80446 
 H                    -0.09587  -1.03096  -1.1445 
 H                    -0.8449    0.59851  -1.1445 
 H                     0.94078   0.43245  -1.1445 
 N                     0.        0.        0.71256 
 H                     0.08865   0.95193   1.09076 
 H                    -0.86872  -0.39919   1.09076 
 H                     0.78007  -0.55274   1.09076 
 
 NAtoms=      8 NQM=        0 NQMF=       0 NMMI=      8 NMMIF=      0
                NMic=       0 NMicF=      0.
                    Isotopes and Nuclear Properties:
 (Nuclear quadrupole moments (NQMom) in fm**2, nuclear magnetic moments (NMagM)
  in nuclear magnetons)

  Atom         1           2           3           4           5           6           7           8
 IAtWgt=          12           1           1           1          14           1           1           1
 AtmWgt=  12.0000000   1.0078250   1.0078250   1.0078250  14.0030740   1.0078250   1.0078250   1.0078250
 NucSpn=           0           1           1           1           2           1           1           1
 AtZEff=   0.0000000   0.0000000   0.0000000   0.0000000   0.0000000   0.0000000   0.0000000   0.0000000
 NQMom=    0.0000000   0.0000000   0.0000000   0.0000000   2.0440000   0.0000000   0.0000000   0.0000000
 NMagM=    0.0000000   2.7928460   2.7928460   2.7928460   0.4037610   2.7928460   2.7928460   2.7928460
 Leave Link  101 at Thu Feb 26 00:47:45 2015, MaxMem= 1073741824 cpu:       0.9
 (Enter /apps/gaussian/g09_c01/g09/l103.exe)

 GradGradGradGradGradGradGradGradGradGradGradGradGradGradGradGradGradGrad
 Berny optimization.
 Initialization pass.
                           ----------------------------
                           !    Initial Parameters    !
                           ! (Angstroms and Degrees)  !
 --------------------------                            --------------------------
 ! Name  Definition              Value          Derivative Info.                !
 --------------------------------------------------------------------------------
 ! R1    R(1,2)                  1.0898         calculate D2E/DX2 analytically  !
 ! R2    R(1,3)                  1.0898         calculate D2E/DX2 analytically  !
 ! R3    R(1,4)                  1.0898         calculate D2E/DX2 analytically  !
 ! R4    R(1,5)                  1.517          calculate D2E/DX2 analytically  !
 ! R5    R(5,6)                  1.0281         calculate D2E/DX2 analytically  !
 ! R6    R(5,7)                  1.0281         calculate D2E/DX2 analytically  !
 ! R7    R(5,8)                  1.0281         calculate D2E/DX2 analytically  !
 ! A1    A(2,1,3)              110.7303         calculate D2E/DX2 analytically  !
 ! A2    A(2,1,4)              110.7304         calculate D2E/DX2 analytically  !
 ! A3    A(2,1,5)              108.1807         calculate D2E/DX2 analytically  !
 ! A4    A(3,1,4)              110.7303         calculate D2E/DX2 analytically  !
 ! A5    A(3,1,5)              108.1807         calculate D2E/DX2 analytically  !
 ! A6    A(4,1,5)              108.1807         calculate D2E/DX2 analytically  !
 ! A7    A(1,5,6)              111.5829         calculate D2E/DX2 analytically  !
 ! A8    A(1,5,7)              111.583          calculate D2E/DX2 analytically  !
 ! A9    A(1,5,8)              111.583          calculate D2E/DX2 analytically  !
 ! A10   A(6,5,7)              107.2794         calculate D2E/DX2 analytically  !
 ! A11   A(6,5,8)              107.2794         calculate D2E/DX2 analytically  !
 ! A12   A(7,5,8)              107.2794         calculate D2E/DX2 analytically  !
 ! D1    D(2,1,5,6)            179.9926         calculate D2E/DX2 analytically  !
 ! D2    D(2,1,5,7)            -60.0075         calculate D2E/DX2 analytically  !
 ! D3    D(2,1,5,8)             59.9926         calculate D2E/DX2 analytically  !
 ! D4    D(3,1,5,6)            -60.0075         calculate D2E/DX2 analytically  !
 ! D5    D(3,1,5,7)             59.9925         calculate D2E/DX2 analytically  !
 ! D6    D(3,1,5,8)            179.9926         calculate D2E/DX2 analytically  !
 ! D7    D(4,1,5,6)             59.9925         calculate D2E/DX2 analytically  !
 ! D8    D(4,1,5,7)            179.9925         calculate D2E/DX2 analytically  !
 ! D9    D(4,1,5,8)            -60.0075         calculate D2E/DX2 analytically  !
 --------------------------------------------------------------------------------
 Trust Radius=3.00D-01 FncErr=1.00D-07 GrdErr=1.00D-06
 Number of steps in this run=     38 maximum allowed number of steps=    100.
 GradGradGradGradGradGradGradGradGradGradGradGradGradGradGradGradGradGrad

 Leave Link  103 at Thu Feb 26 00:47:45 2015, MaxMem= 1073741824 cpu:       0.0
 (Enter /apps/gaussian/g09_c01/g09/l202.exe)
                          Input orientation:                          
 ---------------------------------------------------------------------
 Center     Atomic      Atomic             Coordinates (Angstroms)
 Number     Number       Type             X           Y           Z
 ---------------------------------------------------------------------
      1          6           0        0.000000    0.000000   -0.804455
      2          1           0       -0.095874   -1.030964   -1.144495
      3          1           0       -0.844904    0.598511   -1.144495
      4          1           0        0.940777    0.432453   -1.144495
      5          7           0        0.000000    0.000000    0.712562
      6          1           0        0.088649    0.951929    1.090759
      7          1           0       -0.868719   -0.399192    1.090759
      8          1           0        0.780070   -0.552736    1.090759
 ---------------------------------------------------------------------
                    Distance matrix (angstroms):
                    1          2          3          4          5
     1  C    0.000000
     2  H    1.089819   0.000000
     3  H    1.089819   1.793386   0.000000
     4  H    1.089818   1.793386   1.793386   0.000000
     5  N    1.517017   2.126203   2.126203   2.126203   0.000000
     6  H    2.122702   2.993706   2.448017   2.447925   1.028134
     7  H    2.122702   2.448017   2.447925   2.993705   1.028134
     8  H    2.122702   2.447926   2.993705   2.448016   1.028134
                    6          7          8
     6  H    0.000000
     7  H    1.655923   0.000000
     8  H    1.655923   1.655923   0.000000
 Stoichiometry    CH6N(1+)
 Framework group  C3[C3(CN),X(H6)]
 Deg. of freedom     6
 Full point group                 C3      NOp   3
 Largest Abelian subgroup         C1      NOp   1
 Largest concise Abelian subgroup C1      NOp   1
                         Standard orientation:                         
 ---------------------------------------------------------------------
 Center     Atomic      Atomic             Coordinates (Angstroms)
 Number     Number       Type             X           Y           Z
 ---------------------------------------------------------------------
      1          6           0        0.000000    0.000000   -0.804455
      2          1           0        1.030964   -0.095874   -1.144495
      3          1           0       -0.598511   -0.844904   -1.144495
      4          1           0       -0.432453    0.940778   -1.144495
      5          7           0        0.000000    0.000000    0.712562
      6          1           0       -0.951929    0.088649    1.090759
      7          1           0        0.399192   -0.868719    1.090759
      8          1           0        0.552737    0.780070    1.090759
 ---------------------------------------------------------------------
 Rotational constants (GHZ):     84.1605103     19.8694623     19.8694623
 Leave Link  202 at Thu Feb 26 00:47:45 2015, MaxMem= 1073741824 cpu:       0.0
 (Enter /apps/gaussian/g09_c01/g09/l301.exe)
 Standard basis: Aug-CC-pVDZ (5D, 7F)
 Ernie: Thresh=  0.10000D-02 Tol=  0.10000D-05 Strict=F.
 Ernie:  4 primitive shells out of 92 were deleted.
 There are   100 symmetry adapted basis functions of A   symmetry.
 Integral buffers will be    131072 words long.
 Raffenetti 2 integral format.
 Two-electron integral symmetry is turned on.
   100 basis functions,   152 primitive gaussians,   104 cartesian basis functions
     9 alpha electrons        9 beta electrons
       nuclear repulsion energy        47.5846100594 Hartrees.
 IExCor= 1009 DFT=T Ex+Corr=PBE1PBE ExCW=0 ScaHFX=  0.250000
 ScaDFX=  0.750000  0.750000  1.000000  1.000000 ScalE2=  1.000000  1.000000
 IRadAn=      5 IRanWt=     -1 IRanGd=            0 ICorTp=0
 NAtoms=    8 NActive=    8 NUniq=    4 SFac= 4.00D+00 NAtFMM=   60 NAOKFM=F Big=F
 Leave Link  301 at Thu Feb 26 00:47:45 2015, MaxMem= 1073741824 cpu:       0.3
 (Enter /apps/gaussian/g09_c01/g09/l302.exe)
 NPDir=0 NMtPBC=     1 NCelOv=     1 NCel=       1 NClECP=     1 NCelD=      1
         NCelK=      1 NCelE2=     1 NClLst=     1 CellRange=     0.0.
 One-electron integrals computed using PRISM.
 NBasis=   100 RedAO= T  NBF=   100
 NBsUse=   100 1.00D-06 NBFU=   100
 Precomputing XC quadrature grid using
 IXCGrd= 2 IRadAn=           5 IRanWt=          -1 IRanGd=           0 AccXCQ= 0.00D+00.
 NRdTot=     685 NPtTot=      183098 NUsed=      188010 NTot=      188042
 NSgBfM=   104   104   104   104   104 NAtAll=     8     8.
 Leave Link  302 at Thu Feb 26 00:47:46 2015, MaxMem= 1073741824 cpu:       1.2
 (Enter /apps/gaussian/g09_c01/g09/l303.exe)
 DipDrv:  MaxL=1.
 Leave Link  303 at Thu Feb 26 00:47:46 2015, MaxMem= 1073741824 cpu:       0.2
 (Enter /apps/gaussian/g09_c01/g09/l401.exe)
 Harris functional with IExCor= 1009 diagonalized for initial guess.
 ExpMin= 2.97D-02 ExpMax= 9.05D+03 ExpMxC= 3.09D+02 IAcc=3 IRadAn=         5 AccDes= 0.00D+00
 HarFok:  IExCor= 1009 AccDes= 0.00D+00 IRadAn=         5 IDoV= 1
 ScaDFX=  1.000000  1.000000  1.000000  1.000000
 FoFCou: FMM=F IPFlag=           0 FMFlag=      100000 FMFlg1=           0
         NFxFlg=           0 DoJE=T BraDBF=F KetDBF=T FulRan=T
         Omega=  0.000000  0.000000  1.000000  0.000000  0.000000 ICntrl=     500 IOpCl=  0
         NMat0=    1 NMatS0=    1 NMatT0=    0 NMatD0=    1 NMtDS0=    0 NMtDT0=    0
         I1Cent=           4 NGrid=           0.
 Petite list used in FoFCou.
 Harris En= -96.1928057647449    
 Initial guess orbital symmetries:
       Occupied  (A) (A) (A) (A) (E) (E) (A) (E) (E)
       Virtual   (A) (A) (E) (E) (A) (E) (E) (A) (E) (E) (A) (E)
                 (E) (A) (E) (E) (E) (E) (A) (A) (E) (E) (E) (E)
                 (A) (A) (A) (E) (E) (A) (E) (E) (E) (E) (A) (E)
                 (E) (A) (A) (E) (E) (A) (E) (E) (E) (E) (A) (E)
                 (E) (A) (E) (E) (A) (A) (E) (E) (E) (E) (E) (E)
                 (A) (A) (A) (E) (E) (A) (A) (E) (E) (E) (E) (A)
                 (E) (E) (E) (E) (A) (E) (E) (E) (E) (A) (E) (E)
                 (A) (A) (E) (E) (A) (E) (E)
 The electronic state of the initial guess is 1-A.
 Leave Link  401 at Thu Feb 26 00:47:46 2015, MaxMem= 1073741824 cpu:       2.2
 (Enter /apps/gaussian/g09_c01/g09/l502.exe)
 Closed shell SCF:
 Requested convergence on RMS density matrix=1.00D-08 within 128 cycles.
 Requested convergence on MAX density matrix=1.00D-06.
 Requested convergence on             energy=1.00D-06.
 No special actions if energy rises.
 Using DIIS extrapolation, IDIIS=  1040.
 Integral symmetry usage will be decided dynamically.
       187925 words used for storage of precomputed grid.
 Keep R1 ints in memory in canonical form, NReq=16077209.
 IEnd=      240235 IEndB=      240235 NGot=  1073741824 MDV=  1058620592
 LenX=  1058620592 LenY=  1058609335
 Symmetry not used in FoFDir.
 MinBra= 0 MaxBra= 2 Meth= 1.
 IRaf=       0 NMat=   1 IRICut=       1 DoRegI=T DoRafI=F ISym2E= 0 JSym2E=0.

 Cycle   1  Pass 1  IDiag  1:
 E= -96.0763533499358    
 DIIS: error= 1.23D-02 at cycle   1 NSaved=   1.
 NSaved= 1 IEnMin= 1 EnMin= -96.0763533499358     IErMin= 1 ErrMin= 1.23D-02
 ErrMax= 1.23D-02 EMaxC= 1.00D-01 BMatC= 3.16D-02 BMatP= 3.16D-02
 IDIUse=3 WtCom= 8.77D-01 WtEn= 1.23D-01
 Coeff-Com:  0.100D+01
 Coeff-En:   0.100D+01
 Coeff:      0.100D+01
 Gap=     0.394 Goal=   None    Shift=    0.000
 DSYEVD returned Info=         201 IAlg= 4 N=   100 NDim=   100 NE2=    10586092 trying DSYEV.
 GapD=    0.394 DampG=1.000 DampE=0.500 DampFc=0.5000 IDamp=-1.
 Damping current iteration by 5.00D-01
 RMSDP=4.91D-03 MaxDP=7.23D-02              OVMax= 1.03D-01

 Cycle   2  Pass 1  IDiag  1:
 E= -96.0928027767948     Delta-E=       -0.016449426859 Rises=F Damp=T
 DIIS: error= 4.41D-03 at cycle   2 NSaved=   2.
 NSaved= 2 IEnMin= 2 EnMin= -96.0928027767948     IErMin= 2 ErrMin= 4.41D-03
 ErrMax= 4.41D-03 EMaxC= 1.00D-01 BMatC= 2.02D-03 BMatP= 3.16D-02
 IDIUse=3 WtCom= 9.56D-01 WtEn= 4.41D-02
 Coeff-Com: -0.976D-01 0.110D+01
 Coeff-En:   0.000D+00 0.100D+01
 Coeff:     -0.933D-01 0.109D+01
 Gap=     0.433 Goal=   None    Shift=    0.000
 DSYEVD returned Info=         201 IAlg= 4 N=   100 NDim=   100 NE2=    10586092 trying DSYEV.
 RMSDP=2.26D-03 MaxDP=4.73D-02 DE=-1.64D-02 OVMax= 4.64D-02

 Cycle   3  Pass 1  IDiag  1:
 E= -96.1081767332356     Delta-E=       -0.015373956441 Rises=F Damp=F
 DIIS: error= 2.53D-03 at cycle   3 NSaved=   3.
 NSaved= 3 IEnMin= 3 EnMin= -96.1081767332356     IErMin= 3 ErrMin= 2.53D-03
 ErrMax= 2.53D-03 EMaxC= 1.00D-01 BMatC= 3.42D-04 BMatP= 2.02D-03
 IDIUse=3 WtCom= 9.75D-01 WtEn= 2.53D-02
 Coeff-Com: -0.775D-01 0.303D+00 0.775D+00
 Coeff-En:   0.000D+00 0.000D+00 0.100D+01
 Coeff:     -0.755D-01 0.295D+00 0.780D+00
 Gap=     0.433 Goal=   None    Shift=    0.000
 DSYEVD returned Info=         201 IAlg= 4 N=   100 NDim=   100 NE2=    10586092 trying DSYEV.
 RMSDP=1.69D-04 MaxDP=4.65D-03 DE=-1.54D-02 OVMax= 6.18D-03

 Cycle   4  Pass 1  IDiag  1:
 E= -96.1085048732525     Delta-E=       -0.000328140017 Rises=F Damp=F
 DIIS: error= 5.14D-04 at cycle   4 NSaved=   4.
 NSaved= 4 IEnMin= 4 EnMin= -96.1085048732525     IErMin= 4 ErrMin= 5.14D-04
 ErrMax= 5.14D-04 EMaxC= 1.00D-01 BMatC= 9.89D-06 BMatP= 3.42D-04
 IDIUse=3 WtCom= 9.95D-01 WtEn= 5.14D-03
 Coeff-Com: -0.121D-01 0.242D-01 0.181D+00 0.807D+00
 Coeff-En:   0.000D+00 0.000D+00 0.000D+00 0.100D+01
 Coeff:     -0.120D-01 0.241D-01 0.180D+00 0.808D+00
 Gap=     0.432 Goal=   None    Shift=    0.000
 DSYEVD returned Info=         201 IAlg= 4 N=   100 NDim=   100 NE2=    10586092 trying DSYEV.
 RMSDP=3.30D-05 MaxDP=4.65D-04 DE=-3.28D-04 OVMax= 1.31D-03

 Cycle   5  Pass 1  IDiag  1:
 E= -96.1085135109015     Delta-E=       -0.000008637649 Rises=F Damp=F
 DIIS: error= 1.40D-04 at cycle   5 NSaved=   5.
 NSaved= 5 IEnMin= 5 EnMin= -96.1085135109015     IErMin= 5 ErrMin= 1.40D-04
 ErrMax= 1.40D-04 EMaxC= 1.00D-01 BMatC= 1.40D-06 BMatP= 9.89D-06
 IDIUse=3 WtCom= 9.99D-01 WtEn= 1.40D-03
 Coeff-Com: -0.472D-02 0.517D-02 0.779D-01 0.405D+00 0.517D+00
 Coeff-En:   0.000D+00 0.000D+00 0.000D+00 0.000D+00 0.100D+01
 Coeff:     -0.471D-02 0.517D-02 0.778D-01 0.404D+00 0.517D+00
 Gap=     0.432 Goal=   None    Shift=    0.000
 DSYEVD returned Info=         201 IAlg= 4 N=   100 NDim=   100 NE2=    10586092 trying DSYEV.
 RMSDP=7.89D-06 MaxDP=2.80D-04 DE=-8.64D-06 OVMax= 3.15D-04

 Cycle   6  Pass 1  IDiag  1:
 E= -96.1085146026679     Delta-E=       -0.000001091766 Rises=F Damp=F
 DIIS: error= 2.39D-05 at cycle   6 NSaved=   6.
 NSaved= 6 IEnMin= 6 EnMin= -96.1085146026679     IErMin= 6 ErrMin= 2.39D-05
 ErrMax= 2.39D-05 EMaxC= 1.00D-01 BMatC= 2.97D-08 BMatP= 1.40D-06
 IDIUse=1 WtCom= 1.00D+00 WtEn= 0.00D+00
 Coeff-Com:  0.217D-04-0.693D-03 0.260D-02 0.225D-01 0.140D+00 0.836D+00
 Coeff:      0.217D-04-0.693D-03 0.260D-02 0.225D-01 0.140D+00 0.836D+00
 Gap=     0.432 Goal=   None    Shift=    0.000
 DSYEVD returned Info=         201 IAlg= 4 N=   100 NDim=   100 NE2=    10586092 trying DSYEV.
 RMSDP=1.49D-06 MaxDP=5.52D-05 DE=-1.09D-06 OVMax= 7.61D-05

 Cycle   7  Pass 1  IDiag  1:
 E= -96.1085146296616     Delta-E=       -0.000000026994 Rises=F Damp=F
 DIIS: error= 1.71D-06 at cycle   7 NSaved=   7.
 NSaved= 7 IEnMin= 7 EnMin= -96.1085146296616     IErMin= 7 ErrMin= 1.71D-06
 ErrMax= 1.71D-06 EMaxC= 1.00D-01 BMatC= 2.68D-10 BMatP= 2.97D-08
 IDIUse=1 WtCom= 1.00D+00 WtEn= 0.00D+00
 Coeff-Com:  0.108D-03-0.218D-03-0.104D-02-0.452D-02 0.661D-02 0.127D+00
 Coeff-Com:  0.873D+00
 Coeff:      0.108D-03-0.218D-03-0.104D-02-0.452D-02 0.661D-02 0.127D+00
 Coeff:      0.873D+00
 Gap=     0.432 Goal=   None    Shift=    0.000
 DSYEVD returned Info=         201 IAlg= 4 N=   100 NDim=   100 NE2=    10586092 trying DSYEV.
 RMSDP=2.55D-07 MaxDP=5.27D-06 DE=-2.70D-08 OVMax= 5.82D-06

 Cycle   8  Pass 1  IDiag  1:
 E= -96.1085146299828     Delta-E=       -0.000000000321 Rises=F Damp=F
 DIIS: error= 1.61D-07 at cycle   8 NSaved=   8.
 NSaved= 8 IEnMin= 8 EnMin= -96.1085146299828     IErMin= 8 ErrMin= 1.61D-07
 ErrMax= 1.61D-07 EMaxC= 1.00D-01 BMatC= 3.18D-12 BMatP= 2.68D-10
 IDIUse=1 WtCom= 1.00D+00 WtEn= 0.00D+00
 Coeff-Com:  0.173D-04-0.169D-04-0.254D-03-0.138D-02-0.343D-02-0.704D-02
 Coeff-Com:  0.732D-01 0.939D+00
 Coeff:      0.173D-04-0.169D-04-0.254D-03-0.138D-02-0.343D-02-0.704D-02
 Coeff:      0.732D-01 0.939D+00
 Gap=     0.432 Goal=   None    Shift=    0.000
 DSYEVD returned Info=         201 IAlg= 4 N=   100 NDim=   100 NE2=    10586092 trying DSYEV.
 RMSDP=2.02D-08 MaxDP=3.83D-07 DE=-3.21D-10 OVMax= 7.95D-07

 Cycle   9  Pass 1  IDiag  1:
 E= -96.1085146299865     Delta-E=       -0.000000000004 Rises=F Damp=F
 DIIS: error= 2.32D-08 at cycle   9 NSaved=   9.
 NSaved= 9 IEnMin= 9 EnMin= -96.1085146299865     IErMin= 9 ErrMin= 2.32D-08
 ErrMax= 2.32D-08 EMaxC= 1.00D-01 BMatC= 2.94D-14 BMatP= 3.18D-12
 IDIUse=1 WtCom= 1.00D+00 WtEn= 0.00D+00
 Coeff-Com: -0.166D-05 0.244D-05 0.127D-04 0.860D-04 0.289D-04-0.270D-03
 Coeff-Com: -0.753D-02-0.236D-01 0.103D+01
 Coeff:     -0.166D-05 0.244D-05 0.127D-04 0.860D-04 0.289D-04-0.270D-03
 Coeff:     -0.753D-02-0.236D-01 0.103D+01
 Gap=     0.432 Goal=   None    Shift=    0.000
 DSYEVD returned Info=         201 IAlg= 4 N=   100 NDim=   100 NE2=    10586092 trying DSYEV.
 RMSDP=2.22D-09 MaxDP=3.98D-08 DE=-3.67D-12 OVMax= 4.56D-08

 SCF Done:  E(RPBE1PBE) =  -96.1085146300     A.U. after    9 cycles
             Convg  =    0.2222D-08             -V/T =  2.0073
 KE= 9.540840269496D+01 PE=-3.129570967854D+02 EE= 7.385556940101D+01
 Leave Link  502 at Thu Feb 26 00:47:48 2015, MaxMem= 1073741824 cpu:      16.7
 (Enter /apps/gaussian/g09_c01/g09/l801.exe)
 Range of M.O.s used for correlation:     1   100
 NBasis=   100 NAE=     9 NBE=     9 NFC=     0 NFV=     0
 NROrb=    100 NOA=     9 NOB=     9 NVA=    91 NVB=    91

 **** Warning!!: The largest alpha MO coefficient is  0.20977996D+02

 Leave Link  801 at Thu Feb 26 00:47:48 2015, MaxMem= 1073741824 cpu:       0.1
 (Enter /apps/gaussian/g09_c01/g09/l1002.exe)
 Minotr:  Closed shell wavefunction.
          Direct CPHF calculation.
          Differentiating once with respect to electric field.
                with respect to dipole field.
          Electric field/nuclear overlap derivatives assumed to be zero.
          Using symmetry in CPHF.
          Requested convergence is 1.0D-08 RMS, and 1.0D-07 maximum.
          Secondary convergence is 1.0D-12 RMS, and 1.0D-12 maximum.
          NewPWx=F KeepS1=T KeepF1=T KeepIn=T MapXYZ=F SortEE=F KeepMc=T.
          MDV=    1073741756 using IRadAn=       1.
 Generate precomputed XC quadrature information.
          Keep R1 ints in memory in canonical form, NReq=15731880.
 Symmetry not used in FoFDir.
 MinBra= 0 MaxBra= 2 Meth= 1.
 IRaf=       0 NMat=   1 IRICut=       1 DoRegI=T DoRafI=F ISym2E= 0 JSym2E=0.
          Solving linear equations simultaneously, MaxMat=       0.
          There are     3 degrees of freedom in the 1st order CPHF.  IDoFFX=0.
      3 vectors produced by pass  0 Test12= 2.73D-14 3.33D-08 XBig12= 9.98D+00 1.32D+00.
 AX will form     3 AO Fock derivatives at one time.
      3 vectors produced by pass  1 Test12= 2.73D-14 3.33D-08 XBig12= 6.05D-01 2.38D-01.
      3 vectors produced by pass  2 Test12= 2.73D-14 3.33D-08 XBig12= 1.29D-01 1.02D-01.
      3 vectors produced by pass  3 Test12= 2.73D-14 3.33D-08 XBig12= 5.76D-03 1.86D-02.
      3 vectors produced by pass  4 Test12= 2.73D-14 3.33D-08 XBig12= 1.05D-03 6.97D-03.
      3 vectors produced by pass  5 Test12= 2.73D-14 3.33D-08 XBig12= 3.25D-05 1.40D-03.
      3 vectors produced by pass  6 Test12= 2.73D-14 3.33D-08 XBig12= 1.17D-06 2.73D-04.
      3 vectors produced by pass  7 Test12= 2.73D-14 3.33D-08 XBig12= 1.78D-08 4.90D-05.
      1 vectors produced by pass  8 Test12= 2.73D-14 3.33D-08 XBig12= 4.13D-11 1.85D-06.
      1 vectors produced by pass  9 Test12= 2.73D-14 3.33D-08 XBig12= 8.00D-14 1.00D-07.
 Inverted reduced A of dimension    26 with in-core refinement.
 End of Minotr Frequency-dependent properties file   721 does not exist.
 End of Minotr Frequency-dependent properties file   722 does not exist.
 Leave Link 1002 at Thu Feb 26 00:47:52 2015, MaxMem= 1073741824 cpu:      32.8
 (Enter /apps/gaussian/g09_c01/g09/l1101.exe)
 Using compressed storage, NAtomX=     8.
 Will process   9 centers per pass.
 Leave Link 1101 at Thu Feb 26 00:47:52 2015, MaxMem= 1073741824 cpu:       1.1
 (Enter /apps/gaussian/g09_c01/g09/l1102.exe)
 Symmetrizing basis deriv contribution to polar:
 IMax=3 JMax=2 DiffMx= 0.00D+00
 Leave Link 1102 at Thu Feb 26 00:47:52 2015, MaxMem= 1073741824 cpu:       0.2
 (Enter /apps/gaussian/g09_c01/g09/l1110.exe)
 Forming Gx(P) for the SCF density, NAtomX=     8.
 Integral derivatives from FoFDir/FoFCou, PRISM(SPDF).
 Do as many integral derivatives as possible in FoFDir.
 G2DrvN: MDV=    1073741656.
 G2DrvN: will do     9 centers at a time, making    1 passes doing MaxLOS=2.
 Calling FoFCou, ICntrl=  3107 FMM=F I1Cent=   0 AccDes= 0.00D+00.
 FoFCou: FMM=F IPFlag=           0 FMFlag=      100000 FMFlg1=           0
         NFxFlg=           0 DoJE=F BraDBF=F KetDBF=F FulRan=T
         Omega=  0.000000  0.000000  1.000000  0.000000  0.000000 ICntrl=    3107 IOpCl=  0
         NMat0=    1 NMatS0=    1 NMatT0=    0 NMatD0=    4 NMtDS0=    3 NMtDT0=    0
         I1Cent=           0 NGrid=           0.
 Petite list used in FoFCou.
 FoFDir/FoFCou used for L=0 through L=2.
 End of G2Drv Frequency-dependent properties file   721 does not exist.
 End of G2Drv Frequency-dependent properties file   722 does not exist.
 Leave Link 1110 at Thu Feb 26 00:48:00 2015, MaxMem= 1073741824 cpu:      58.2
 (Enter /apps/gaussian/g09_c01/g09/l1002.exe)
 Minotr:  Closed shell wavefunction.
          IDoAtm=11111111
          Direct CPHF calculation.
          Differentiating once with respect to electric field.
                with respect to dipole field.
          Differentiating once with respect to nuclear coordinates.
          Using symmetry in CPHF.
          Requested convergence is 1.0D-08 RMS, and 1.0D-07 maximum.
          Secondary convergence is 1.0D-12 RMS, and 1.0D-12 maximum.
          NewPWx=T KeepS1=F KeepF1=F KeepIn=T MapXYZ=F SortEE=F KeepMc=T.
          MDV=    1073741740 using IRadAn=       1.
 Generate precomputed XC quadrature information.
          Keep R1 ints in memory in canonical form, NReq=15732048.
 Symmetry not used in FoFDir.
 MinBra= 0 MaxBra= 2 Meth= 1.
 IRaf=       0 NMat=   1 IRICut=       1 DoRegI=T DoRafI=F ISym2E= 0 JSym2E=0.
          Solving linear equations simultaneously, MaxMat=       0.
          There are    15 degrees of freedom in the 1st order CPHF.  IDoFFX=4.
 Will reuse    3 saved solutions.
     12 vectors produced by pass  0 Test12= 5.46D-15 6.67D-09 XBig12= 7.54D-02 9.09D-02.
 AX will form    12 AO Fock derivatives at one time.
     12 vectors produced by pass  1 Test12= 5.46D-15 6.67D-09 XBig12= 1.01D-02 4.11D-02.
     12 vectors produced by pass  2 Test12= 5.46D-15 6.67D-09 XBig12= 3.41D-04 6.54D-03.
     12 vectors produced by pass  3 Test12= 5.46D-15 6.67D-09 XBig12= 2.06D-06 2.95D-04.
     12 vectors produced by pass  4 Test12= 5.46D-15 6.67D-09 XBig12= 4.90D-09 1.36D-05.
     10 vectors produced by pass  5 Test12= 5.46D-15 6.67D-09 XBig12= 6.30D-12 3.61D-07.
      1 vectors produced by pass  6 Test12= 5.46D-15 6.67D-09 XBig12= 6.83D-15 1.63D-08.
 Inverted reduced A of dimension    71 with in-core refinement.
 FullF1:  Do perturbations    1 to    15.
 Isotropic polarizability for W=    0.000000       20.37 Bohr**3.
 FullF1:  Do perturbations    1 to     6.
 End of Minotr Frequency-dependent properties file   721 does not exist.
 End of Minotr Frequency-dependent properties file   722 does not exist.
 Leave Link 1002 at Thu Feb 26 00:48:07 2015, MaxMem= 1073741824 cpu:      59.2
 (Enter /apps/gaussian/g09_c01/g09/l601.exe)
 Copying SCF densities to generalized density rwf, IOpCl= 0 IROHF=0.

 **********************************************************************

            Population analysis using the SCF density.

 **********************************************************************

 Orbital symmetries:
       Occupied  (A) (A) (A) (A) (E) (E) (A) (E) (E)
       Virtual   (A) (A) (E) (E) (E) (E) (A) (A) (E) (E) (A) (E)
                 (E) (A) (E) (E) (E) (E) (A) (E) (E) (A) (A) (E)
                 (E) (A) (A) (E) (E) (E) (E) (A) (E) (E) (A) (A)
                 (E) (E) (A) (E) (E) (A) (E) (E) (E) (E) (A) (E)
                 (E) (E) (E) (A) (A) (A) (E) (E) (E) (E) (E) (E)
                 (A) (A) (A) (E) (E) (A) (E) (E) (A) (E) (E) (A)
                 (E) (E) (E) (E) (A) (E) (E) (E) (E) (A) (A) (E)
                 (E) (A) (E) (E) (A) (E) (E)
 The electronic state is 1-A.
 Alpha  occ. eigenvalues --  -14.74454 -10.49619  -1.24747  -0.95602  -0.81793
 Alpha  occ. eigenvalues --   -0.81793  -0.71971  -0.63735  -0.63735
 Alpha virt. eigenvalues --   -0.20501  -0.14098  -0.13867  -0.13867  -0.09493
 Alpha virt. eigenvalues --   -0.09493  -0.08811  -0.05948  -0.05650  -0.05650
 Alpha virt. eigenvalues --   -0.03563  -0.03421  -0.03421  -0.00583  -0.00558
 Alpha virt. eigenvalues --   -0.00558   0.01502   0.01502   0.03035   0.08636
 Alpha virt. eigenvalues --    0.08636   0.11404   0.16723   0.17105   0.17105
 Alpha virt. eigenvalues --    0.18554   0.18883   0.22496   0.22496   0.26849
 Alpha virt. eigenvalues --    0.26849   0.27115   0.29104   0.29104   0.29436
 Alpha virt. eigenvalues --    0.30049   0.31315   0.31315   0.34176   0.38304
 Alpha virt. eigenvalues --    0.38304   0.44210   0.44453   0.44453   0.50876
 Alpha virt. eigenvalues --    0.50876   0.60484   0.63787   0.63787   0.65577
 Alpha virt. eigenvalues --    0.65577   0.67152   0.73439   0.86904   0.89329
 Alpha virt. eigenvalues --    0.89329   1.11518   1.11518   1.28067   1.28067
 Alpha virt. eigenvalues --    1.36245   1.39861   1.41723   1.45230   1.45230
 Alpha virt. eigenvalues --    1.47074   1.57908   1.57908   1.61346   1.73104
 Alpha virt. eigenvalues --    1.73104   1.77252   1.80015   1.80015   1.90908
 Alpha virt. eigenvalues --    1.90908   1.94812   1.95421   1.95421   2.17049
 Alpha virt. eigenvalues --    2.17049   2.21667   2.29297   2.31446   2.31446
 Alpha virt. eigenvalues --    2.35736   2.50430   2.50430   2.58987   2.93434
 Alpha virt. eigenvalues --    2.93434
          Condensed to atoms (all electrons):
              1          2          3          4          5          6
     1  C    4.072909   0.366582   0.366582   0.366582   0.116207  -0.035412
     2  H    0.366582   1.177242  -0.186706  -0.186706  -0.078665   0.033175
     3  H    0.366582  -0.186706   1.177242  -0.186706  -0.078665  -0.023395
     4  H    0.366582  -0.186706  -0.186706   1.177242  -0.078665  -0.023396
     5  N    0.116207  -0.078665  -0.078665  -0.078665   6.070836   0.369702
     6  H   -0.035412   0.033175  -0.023395  -0.023396   0.369702   0.673513
     7  H   -0.035412  -0.023395  -0.023396   0.033175   0.369702  -0.076623
     8  H   -0.035412  -0.023396   0.033175  -0.023395   0.369702  -0.076623
              7          8
     1  C   -0.035412  -0.035412
     2  H   -0.023395  -0.023396
     3  H   -0.023396   0.033175
     4  H    0.033175  -0.023395
     5  N    0.369702   0.369702
     6  H   -0.076623  -0.076623
     7  H    0.673513  -0.076623
     8  H   -0.076623   0.673513
 Mulliken atomic charges:
              1
     1  C    0.817375
     2  H   -0.078132
     3  H   -0.078132
     4  H   -0.078132
     5  N   -0.060154
     6  H    0.159058
     7  H    0.159058
     8  H    0.159058
 Sum of Mulliken atomic charges =   1.00000
 Mulliken charges with hydrogens summed into heavy atoms:
              1
     1  C    0.582980
     5  N    0.417020
 Sum of Mulliken charges with hydrogens summed into heavy atoms =   1.00000
 APT atomic charges:
              1
     1  C    0.235305
     2  H    0.071629
     3  H    0.071630
     4  H    0.071630
     5  N   -0.222337
     6  H    0.257379
     7  H    0.257380
     8  H    0.257380
 Sum of APT charges=   1.00000
 APT Atomic charges with hydrogens summed into heavy atoms:
              1
     1  C    0.450195
     2  H    0.000000
     3  H    0.000000
     4  H    0.000000
     5  N    0.549802
     6  H    0.000000
     7  H    0.000000
     8  H    0.000000
 Sum of APT charges=   1.00000
 Electronic spatial extent (au):  <R**2>=             94.6189
 Charge=              1.0000 electrons
 Dipole moment (field-independent basis, Debye):
    X=              0.0000    Y=              0.0000    Z=              2.1797  Tot=              2.1797
 Quadrupole moment (field-independent basis, Debye-Ang):
   XX=            -10.1364   YY=            -10.1364   ZZ=             -6.6332
   XY=              0.0000   XZ=              0.0000   YZ=              0.0000
 Traceless Quadrupole moment (field-independent basis, Debye-Ang):
   XX=             -1.1677   YY=             -1.1677   ZZ=              2.3355
   XY=              0.0000   XZ=              0.0000   YZ=              0.0000
 Octapole moment (field-independent basis, Debye-Ang**2):
  XXX=             -0.3632  YYY=             -0.1043  ZZZ=              5.7278  XYY=              0.3632
  XXY=              0.1043  XXZ=              2.5707  XZZ=              0.0000  YZZ=              0.0000
  YYZ=              2.5707  XYZ=              0.0000
 Hexadecapole moment (field-independent basis, Debye-Ang**3):
 XXXX=            -17.9564 YYYY=            -17.9564 ZZZZ=            -62.2515 XXXY=              0.0000
 XXXZ=             -2.8004 YYYX=              0.0000 YYYZ=             -0.8004 ZZZX=              0.0000
 ZZZY=              0.0000 XXYY=             -5.9855 XXZZ=            -10.7243 YYZZ=            -10.7243
 XXYZ=              0.8004 YYXZ=              2.8004 ZZXY=              0.0000
 N-N= 4.758461005939D+01 E-N=-3.129570954128D+02  KE= 9.540840269496D+01
  Exact polarizability:  19.314   0.000  19.314   0.000   0.000  22.490
 Approx polarizability:  24.959   0.000  24.959   0.000   0.000  26.469
 No NMR shielding tensors so no spin-rotation constants.
 Leave Link  601 at Thu Feb 26 00:48:07 2015, MaxMem= 1073741824 cpu:       1.1
 (Enter /apps/gaussian/g09_c01/g09/l701.exe)
 Compute integral second derivatives.
 ... and contract with generalized density number  0.
 Leave Link  701 at Thu Feb 26 00:48:07 2015, MaxMem= 1073741824 cpu:       1.3
 (Enter /apps/gaussian/g09_c01/g09/l702.exe)
 L702 exits ... SP integral derivatives will be done elsewhere.
 Leave Link  702 at Thu Feb 26 00:48:07 2015, MaxMem= 1073741824 cpu:       0.1
 (Enter /apps/gaussian/g09_c01/g09/l703.exe)
 Compute integral second derivatives, UseDBF=F ICtDFT=           0.
 Integral derivatives from FoFDir, PRISM(SPDF).
 Calling FoFJK, ICntrl=    100127 FMM=F ISym2X=1 I1Cent= 0 IOpClX= 0 NMat=1 NMatS=1 NMatT=0.
 FoFCou: FMM=F IPFlag=           0 FMFlag=      100000 FMFlg1=         800
         NFxFlg=           0 DoJE=F BraDBF=F KetDBF=F FulRan=T
         Omega=  0.000000  0.000000  1.000000  0.000000  0.000000 ICntrl=  100127 IOpCl=  0
         NMat0=    1 NMatS0=    1 NMatT0=    0 NMatD0=    1 NMtDS0=    0 NMtDT0=    0
         I1Cent=           0 NGrid=           0.
 Petite list used in FoFCou.
 Leave Link  703 at Thu Feb 26 00:48:14 2015, MaxMem= 1073741824 cpu:      49.5
 (Enter /apps/gaussian/g09_c01/g09/l716.exe)
 Dipole        =-9.08886681D-15 1.67140607D-15 8.57544694D-01
 Polarizability= 1.93139653D+01 7.41530317D-06 1.93139842D+01
                 7.56018482D-06 1.87738869D-05 2.24899682D+01
 HyperPolar    = 1.42798389D+00-4.07689979D-01-1.43202549D+00
                 4.06035120D-01-2.75094172D+00-1.01525577D-03
                -2.75182542D+00-1.38192323D-03-7.93461310D-04
                 6.27518846D+00
 ***** Axes restored to original set *****
 -------------------------------------------------------------------
 Center     Atomic                   Forces (Hartrees/Bohr)
 Number     Number              X              Y              Z
 -------------------------------------------------------------------
      1        6           0.000000000    0.000000000    0.010504846
      2        1          -0.000224002   -0.002406186   -0.000339185
      3        1          -0.001971817    0.001397085   -0.000339185
      4        1           0.002195820    0.001009101   -0.000339185
      5        7           0.000000000    0.000000000   -0.004953883
      6        1          -0.000255986   -0.002744141   -0.001511136
      7        1           0.002504489    0.001150380   -0.001511136
      8        1          -0.002248503    0.001593761   -0.001511136
 -------------------------------------------------------------------
 Cartesian Forces:  Max     0.010504846 RMS     0.002756777
 Force constants in Cartesian coordinates: 
                1             2             3             4             5 
      1  0.646254D+00
      2  0.000000D+00  0.646253D+00
      3  0.000000D+00  0.000000D+00  0.402267D+00
      4 -0.499874D-01 -0.256175D-01 -0.828511D-02  0.462493D-01
      5 -0.256180D-01 -0.323107D+00 -0.890678D-01  0.270256D-01  0.334375D+00
      6 -0.683788D-02 -0.735026D-01 -0.707172D-01  0.839710D-02  0.902657D-01
      7 -0.232641D+00  0.131073D+00 -0.729924D-01  0.409150D-02 -0.412429D-02
      8  0.131073D+00 -0.140453D+00  0.517090D-01  0.225057D-01 -0.116776D-01
      9 -0.602360D-01  0.426731D-01 -0.707173D-01  0.890829D-02 -0.440366D-02
     10 -0.277013D+00 -0.105455D+00  0.812774D-01  0.224015D-03  0.189140D-02
     11 -0.105456D+00 -0.960814D-01  0.373586D-01 -0.247386D-01 -0.781015D-02
     12  0.670739D-01  0.308293D-01 -0.707171D-01 -0.956737D-02 -0.268555D-02
     13 -0.956286D-01 -0.179299D-05  0.000000D+00 -0.118180D-02  0.730751D-03
     14  0.175732D-05 -0.956284D-01  0.000000D+00  0.730224D-03  0.660731D-02
     15  0.000000D+00  0.000000D+00 -0.156390D+00  0.461569D-03  0.497002D-02
     16 -0.261664D-03  0.614251D-03 -0.169654D-03  0.368853D-03  0.527052D-04
     17  0.613569D-03  0.627229D-02 -0.182879D-02  0.526161D-04  0.929931D-03
     18 -0.302365D-02 -0.324817D-01 -0.112418D-01  0.203573D-03  0.219157D-02
     19  0.517049D-02  0.252262D-02  0.166850D-02  0.212138D-03  0.255150D-03
     20  0.252200D-02  0.840155D-03  0.767369D-03  0.793568D-03  0.246478D-03
     21  0.296419D-01  0.136223D-01 -0.112417D-01  0.372018D-03 -0.675286D-03
     22  0.410711D-02 -0.313590D-02 -0.149893D-02  0.235333D-04 -0.213294D-03
     23 -0.313657D-02  0.190353D-02  0.106125D-02 -0.751495D-03  0.435856D-03
     24 -0.266182D-01  0.188594D-01 -0.112417D-01 -0.490036D-03 -0.595126D-03
                6             7             8             9            10 
      6  0.860005D-01
      7  0.245793D-02  0.238939D+00
      8  0.962836D-02 -0.138275D+00  0.141686D+00
      9  0.471353D-02  0.739738D-01 -0.524050D-01  0.860005D-01
     10 -0.640460D-03 -0.156947D-01 -0.110821D-01  0.710944D-02  0.285748D+00
     11  0.991664D-02  0.155479D-01  0.810858D-02 -0.694281D-02  0.111249D+00
     12  0.471353D-02 -0.826783D-02 -0.551297D-02  0.471353D-02 -0.823709D-01
     13 -0.337656D-02  0.402748D-02 -0.373772D-02 -0.297494D-01  0.529277D-02
     14 -0.363012D-01 -0.373837D-02  0.139815D-02  0.210747D-01  0.300725D-02
     15 -0.202330D-01  0.407342D-02 -0.288477D-02 -0.202329D-01 -0.453504D-02
     16  0.184130D-03 -0.216215D-03 -0.546258D-03 -0.767917D-03 -0.849904D-04
     17  0.197333D-02 -0.783998D-05  0.674831D-03  0.636218D-03  0.150637D-03
     18 -0.663231D-02 -0.770824D-03  0.154657D-04  0.107703D-02  0.760412D-03
     19 -0.167023D-03  0.750541D-03  0.331757D-03 -0.855018D-03  0.835267D-03
     20 -0.983145D-03 -0.206444D-03 -0.291152D-03  0.513549D-03  0.216579D-03
     21  0.107703D-02 -0.270376D-03  0.721947D-03  0.107802D-02 -0.199974D-02
     22 -0.172373D-04  0.744056D-03 -0.269239D-03  0.161689D-02  0.692001D-03
     23 -0.997242D-03 -0.269328D-03  0.554728D-03 -0.114613D-02  0.218990D-04
     24  0.107802D-02  0.179617D-02 -0.127208D-02 -0.663231D-02  0.398805D-03
               11            12            13            14            15 
     11  0.948758D-01
     12 -0.378607D-01  0.860005D-01
     13  0.300792D-02  0.331258D-01  0.721487D+00
     14  0.132836D-03  0.152263D-01  0.000000D+00  0.721487D+00
     15 -0.208540D-02 -0.202329D-01  0.000000D+00  0.000000D+00  0.514435D+00
     16  0.688839D-03  0.872256D-03 -0.639705D-01 -0.276763D-01 -0.103072D-01
     17  0.544380D-03  0.483693D-03 -0.276758D-01 -0.358694D+00 -0.110711D+00
     18 -0.126821D-03  0.107802D-02 -0.109287D-01 -0.117389D+00 -0.991154D-01
     19  0.216668D-03 -0.180102D-02 -0.308981D+00 -0.113781D+00  0.101032D+00
     20  0.463517D-03 -0.827205D-03 -0.113781D+00 -0.113683D+00  0.464290D-01
     21 -0.919484D-03 -0.663231D-02  0.107126D+00  0.492300D-01 -0.991153D-01
     22 -0.516519D-03  0.934940D-03 -0.261045D+00  0.141457D+00 -0.907248D-01
     23 -0.233385D-03  0.346927D-03  0.141457D+00 -0.161620D+00  0.642817D-01
     24  0.659820D-03  0.107703D-02 -0.961977D-01  0.681591D-01 -0.991154D-01
               16            17            18            19            20 
     16  0.597228D-01
     17  0.297925D-01  0.376974D+00
     18  0.111826D-01  0.120125D+00  0.104676D+00
     19 -0.312671D-03  0.967731D-03 -0.532775D-03  0.323462D+00
     20 -0.308639D-01 -0.108169D-01  0.140027D-01  0.122477D+00  0.113235D+00
     21 -0.133872D-01 -0.413881D-02  0.507915D-02 -0.109623D+00 -0.503782D-01
     22  0.475456D-02 -0.389330D-02  0.310930D-02 -0.211363D-01  0.188414D-01
     23  0.279383D-01 -0.158842D-01  0.136631D-01 -0.129902D-01  0.100067D-01
     24  0.123931D-01 -0.653996D-02  0.507915D-02  0.102779D-01 -0.952428D-02
               21            22            23            24 
     21  0.104676D+00
     22 -0.118603D-01  0.271860D+00
     23 -0.746275D-02 -0.152270D+00  0.164837D+00
     24  0.507915D-02  0.984401D-01 -0.697469D-01  0.104676D+00
 Force constants in internal coordinates: 
                1             2             3             4             5 
      1  0.366210D+00
      2  0.582325D-03  0.366210D+00
      3  0.582334D-03  0.582309D-03  0.366210D+00
      4  0.208878D-02  0.208874D-02  0.208881D-02  0.264246D+00
      5 -0.140880D-02  0.273658D-03  0.273418D-03  0.460122D-02  0.425062D+00
      6  0.273683D-03  0.273423D-03 -0.140873D-02  0.460123D-02  0.120591D-02
      7  0.273402D-03 -0.140876D-02  0.273676D-03  0.460118D-02  0.120590D-02
      8  0.358657D-02  0.358605D-02 -0.144941D-02 -0.260425D-01  0.708511D-04
      9  0.358602D-02 -0.144945D-02  0.358665D-02 -0.260426D-01  0.714707D-04
     10  0.102391D-02 -0.352155D-02 -0.352124D-02  0.273879D-01  0.231210D-02
     11 -0.144947D-02  0.358660D-02  0.358611D-02 -0.260426D-01  0.911005D-03
     12 -0.352116D-02  0.102387D-02 -0.352152D-02  0.273878D-01 -0.171007D-02
     13 -0.352153D-02 -0.352118D-02  0.102375D-02  0.273880D-01 -0.170977D-02
     14  0.633191D-03  0.886296D-04  0.878472D-04  0.135999D-01 -0.444357D-02
     15  0.885791D-04  0.878199D-04  0.633198D-03  0.136000D-01 -0.388882D-02
     16  0.878079D-04  0.633183D-03  0.886878D-04  0.135999D-01 -0.388798D-02
     17 -0.376888D-03 -0.116625D-03 -0.376583D-03 -0.146155D-01  0.651806D-02
     18 -0.376535D-03 -0.376906D-03 -0.116663D-03 -0.146155D-01  0.652378D-02
     19 -0.116608D-03 -0.376558D-03 -0.376952D-03 -0.146155D-01  0.910656D-04
     20  0.000000D+00 -0.285618D-02  0.285620D-02  0.000000D+00  0.405278D-05
     21  0.134896D-04 -0.288400D-02  0.287005D-02  0.000000D+00  0.260628D-02
     22 -0.143447D-04 -0.287014D-02  0.288400D-02  0.000000D+00 -0.260605D-02
     23  0.287008D-02  0.134901D-04 -0.288398D-02  0.000000D+00  0.431266D-03
     24  0.288403D-02 -0.143239D-04 -0.287014D-02  0.000000D+00  0.303349D-02
     25  0.285620D-02  0.000000D+00 -0.285618D-02  0.000000D+00 -0.217883D-02
     26 -0.287014D-02  0.288403D-02 -0.142990D-04  0.000000D+00 -0.424077D-03
     27 -0.285618D-02  0.285622D-02  0.000000D+00  0.000000D+00  0.217815D-02
     28 -0.288401D-02  0.287007D-02  0.135045D-04  0.000000D+00 -0.303418D-02
                6             7             8             9            10 
      6  0.425062D+00
      7  0.120591D-02  0.425062D+00
      8  0.910952D-03  0.714269D-04  0.514015D-01
      9  0.707722D-04  0.910991D-03  0.117518D-01  0.514015D-01
     10 -0.171006D-02 -0.170971D-02 -0.448584D-01 -0.448553D-01  0.131225D+00
     11  0.713650D-04  0.708230D-04  0.117518D-01  0.117518D-01  0.109392D-01
     12 -0.170970D-02  0.231216D-02 -0.448553D-01  0.109391D-01 -0.241902D-01
     13  0.231227D-02 -0.171010D-02  0.109391D-01 -0.448584D-01 -0.241903D-01
     14 -0.388811D-02 -0.388886D-02 -0.407176D-02 -0.407170D-02  0.170040D-01
     15 -0.444360D-02 -0.388806D-02  0.323829D-02 -0.407177D-02 -0.592212D-02
     16 -0.388890D-02 -0.444355D-02 -0.407169D-02  0.323829D-02 -0.592338D-02
     17  0.652387D-02  0.910882D-04  0.800936D-03  0.366974D-02 -0.482576D-02
     18  0.911324D-04  0.651810D-02  0.366973D-02  0.800752D-03 -0.482497D-02
     19  0.651815D-02  0.652381D-02  0.800767D-03  0.800959D-03  0.410701D-02
     20 -0.217885D-02  0.217817D-02 -0.568406D-02  0.568255D-02  0.173207D-05
     21  0.431257D-03 -0.303420D-02 -0.523383D-02  0.478226D-02  0.144129D-02
     22  0.303353D-02 -0.424094D-03 -0.478377D-02  0.523251D-02 -0.143796D-02
     23 -0.303421D-02  0.260631D-02  0.478227D-02  0.450281D-03  0.721597D-02
     24 -0.424104D-03 -0.260606D-02  0.523250D-02 -0.450004D-03  0.865553D-02
     25  0.217817D-02  0.404950D-05  0.568255D-02  0.000000D+00  0.577629D-02
     26 -0.260607D-02  0.303351D-02 -0.450012D-03 -0.478379D-02 -0.721621D-02
     27  0.403255D-05 -0.217886D-02  0.000000D+00 -0.568408D-02 -0.577665D-02
     28  0.260631D-02  0.431250D-03  0.450273D-03 -0.523383D-02 -0.865589D-02
               11            12            13            14            15 
     11  0.514014D-01
     12 -0.448584D-01  0.131225D+00
     13 -0.448552D-01 -0.241904D-01  0.131225D+00
     14  0.323827D-02 -0.592210D-02 -0.592334D-02  0.973641D-01
     15 -0.407171D-02 -0.592341D-02  0.170041D-01 -0.182009D-01  0.973643D-01
     16 -0.407179D-02  0.170041D-01 -0.592208D-02 -0.182008D-01 -0.182009D-01
     17  0.800782D-03  0.410703D-02 -0.482506D-02 -0.395421D-01 -0.395419D-01
     18  0.800955D-03 -0.482579D-02  0.410701D-02 -0.395419D-01  0.135693D-01
     19  0.366978D-02 -0.482498D-02 -0.482586D-02  0.135693D-01 -0.395421D-01
     20  0.000000D+00 -0.577672D-02  0.577634D-02  0.000000D+00 -0.238753D-02
     21  0.450276D-03 -0.865594D-02  0.721601D-02  0.381916D-02  0.143204D-02
     22 -0.449991D-03 -0.721626D-02  0.865553D-02 -0.381965D-02  0.525136D-02
     23 -0.523383D-02  0.144131D-02 -0.865594D-02  0.143203D-02 -0.525120D-02
     24 -0.478378D-02 -0.143791D-02 -0.721627D-02  0.525130D-02 -0.143162D-02
     25 -0.568404D-02  0.177334D-05 -0.577675D-02 -0.238752D-02  0.238770D-02
     26  0.523248D-02  0.865552D-02 -0.143791D-02 -0.143161D-02 -0.381970D-02
     27  0.568253D-02  0.577629D-02  0.175853D-05  0.238766D-02  0.000000D+00
     28  0.478226D-02  0.721598D-02  0.144128D-02 -0.525116D-02  0.381920D-02
               16            17            18            19            20 
     16  0.973642D-01
     17  0.135693D-01  0.525565D-01
     18 -0.395421D-01  0.892517D-02  0.525565D-01
     19 -0.395419D-01  0.892516D-02  0.892516D-02  0.525565D-01
     20  0.238768D-02 -0.696458D-02  0.696457D-02  0.000000D+00  0.139445D-01
     21 -0.525117D-02  0.586552D-02  0.549604D-03 -0.641517D-02  0.342784D-02
     22 -0.143161D-02 -0.549484D-03 -0.586554D-02  0.641491D-02  0.342788D-02
     23  0.381918D-02 -0.641515D-02  0.586553D-02  0.549609D-03  0.385904D-02
     24 -0.381966D-02  0.641495D-02 -0.549446D-03 -0.586552D-02 -0.665761D-02
     25  0.000000D+00  0.000000D+00 -0.696459D-02  0.696456D-02 -0.665756D-02
     26  0.525131D-02 -0.586551D-02  0.641494D-02 -0.549428D-03  0.385910D-02
     27 -0.238754D-02  0.696459D-02  0.000000D+00 -0.696456D-02 -0.665756D-02
     28  0.143202D-02  0.549584D-03 -0.641517D-02  0.586553D-02 -0.665751D-02
               21            22            23            24            25 
     21  0.145051D-01
     22  0.370819D-02  0.145052D-01
     23 -0.693787D-02 -0.721822D-02  0.145051D-01
     24  0.413939D-02 -0.693791D-02  0.370819D-02  0.145052D-01
     25 -0.665751D-02  0.385909D-02  0.342783D-02  0.342788D-02  0.139445D-01
     26 -0.721821D-02 -0.693790D-02  0.413941D-02 -0.693790D-02 -0.665759D-02
     27  0.385905D-02 -0.665760D-02 -0.665750D-02  0.385910D-02 -0.665754D-02
     28 -0.693786D-02  0.413940D-02 -0.693786D-02 -0.721820D-02  0.385906D-02
               26            27            28 
     26  0.145052D-01
     27  0.342786D-02  0.139445D-01
     28  0.370817D-02  0.342782D-02  0.145051D-01
 Leave Link  716 at Thu Feb 26 00:48:14 2015, MaxMem= 1073741824 cpu:       0.2
 (Enter /apps/gaussian/g09_c01/g09/l103.exe)

 GradGradGradGradGradGradGradGradGradGradGradGradGradGradGradGradGradGrad
 Berny optimization.
 Red2BG is reusing G-inverse.
 Internal  Forces:  Max     0.009487291 RMS     0.002224406
 Search for a local minimum.
 Step number   1 out of a maximum of   38
 All quantities printed in internal units (Hartrees-Bohrs-Radians)
 RMS Force = .22244D-02 SwitMx=.10000D-02 MixMth= 1
 Mixed Optimization -- RFO/linear search
 Second derivative matrix not updated -- analytic derivatives used.
 ITU=  0
     Eigenvalues ---    0.00189   0.04616   0.04616   0.04765   0.04765
     Eigenvalues ---    0.11867   0.13009   0.13009   0.13028   0.19309
     Eigenvalues ---    0.19309   0.30277   0.36599   0.36599   0.36771
     Eigenvalues ---    0.42425   0.42425   0.42878
 RFO step:  Lambda=-4.62887526D-04 EMin= 1.88811412D-03
 Linear search not attempted -- first point.
 Iteration  1 RMS(Cart)=  0.00913245 RMS(Int)=  0.00000652
 Iteration  2 RMS(Cart)=  0.00000557 RMS(Int)=  0.00000385
 Iteration  3 RMS(Cart)=  0.00000000 RMS(Int)=  0.00000385
 ClnCor:  largest displacement from symmetrization is 4.58D-08 for atom     3.
 Variable       Old X    -DE/DX   Delta X   Delta X   Delta X     New X
                                 (Linear)    (Quad)   (Total)
    R1        2.05946   0.00240   0.00000   0.00685   0.00685   2.06631
    R2        2.05946   0.00240   0.00000   0.00685   0.00685   2.06631
    R3        2.05946   0.00240   0.00000   0.00685   0.00685   2.06631
    R4        2.86675  -0.00949   0.00000  -0.03800  -0.03800   2.82875
    R5        1.94289  -0.00312   0.00000  -0.00683  -0.00683   1.93606
    R6        1.94289  -0.00312   0.00000  -0.00683  -0.00683   1.93606
    R7        1.94289  -0.00312   0.00000  -0.00683  -0.00683   1.93606
    A1        1.93261   0.00044   0.00000  -0.00363  -0.00364   1.92897
    A2        1.93261   0.00044   0.00000  -0.00363  -0.00364   1.92897
    A3        1.88811  -0.00047   0.00000   0.00382   0.00381   1.89192
    A4        1.93261   0.00044   0.00000  -0.00363  -0.00364   1.92897
    A5        1.88811  -0.00047   0.00000   0.00382   0.00381   1.89192
    A6        1.88811  -0.00047   0.00000   0.00382   0.00381   1.89192
    A7        1.94749  -0.00035   0.00000   0.00028   0.00028   1.94777
    A8        1.94749  -0.00035   0.00000   0.00028   0.00028   1.94777
    A9        1.94749  -0.00035   0.00000   0.00028   0.00028   1.94777
   A10        1.87238   0.00038   0.00000  -0.00030  -0.00030   1.87207
   A11        1.87238   0.00038   0.00000  -0.00030  -0.00030   1.87207
   A12        1.87238   0.00038   0.00000  -0.00030  -0.00030   1.87207
    D1        3.14146   0.00000   0.00000   0.00011   0.00011   3.14157
    D2       -1.04733   0.00000   0.00000   0.00011   0.00011  -1.04722
    D3        1.04707   0.00000   0.00000   0.00011   0.00011   1.04717
    D4       -1.04733   0.00000   0.00000   0.00011   0.00011  -1.04722
    D5        1.04707   0.00000   0.00000   0.00011   0.00011   1.04717
    D6        3.14146   0.00000   0.00000   0.00011   0.00011   3.14157
    D7        1.04707   0.00000   0.00000   0.00011   0.00011   1.04717
    D8        3.14146   0.00000   0.00000   0.00011   0.00011   3.14157
    D9       -1.04733   0.00000   0.00000   0.00011   0.00011  -1.04722
         Item               Value     Threshold  Converged?
 Maximum Force            0.009487     0.000002     NO 
 RMS     Force            0.002224     0.000001     NO 
 Maximum Displacement     0.023354     0.000006     NO 
 RMS     Displacement     0.009132     0.000004     NO 
 Predicted change in Energy=-2.318630D-04
 GradGradGradGradGradGradGradGradGradGradGradGradGradGradGradGradGradGrad

 Leave Link  103 at Thu Feb 26 00:48:14 2015, MaxMem= 1073741824 cpu:       0.0
 (Enter /apps/gaussian/g09_c01/g09/l202.exe)
                          Input orientation:                          
 ---------------------------------------------------------------------
 Center     Atomic      Atomic             Coordinates (Angstroms)
 Number     Number       Type             X           Y           Z
 ---------------------------------------------------------------------
      1          6           0        0.000000    0.000000   -0.792096
      2          1           0       -0.096122   -1.033085   -1.137223
      3          1           0       -0.846617    0.599787   -1.137223
      4          1           0        0.942739    0.433298   -1.137223
      5          7           0        0.000000    0.000000    0.704813
      6          1           0        0.088273    0.948482    1.081951
      7          1           0       -0.865546   -0.397794    1.081951
      8          1           0        0.777273   -0.550687    1.081951
 ---------------------------------------------------------------------
                    Distance matrix (angstroms):
                    1          2          3          4          5
     1  C    0.000000
     2  H    1.093442   0.000000
     3  H    1.093442   1.797084   0.000000
     4  H    1.093442   1.797084   1.797084   0.000000
     5  N    1.496909   2.114143   2.114143   2.114143   0.000000
     6  H    2.102252   2.980829   2.433175   2.433158   1.024521
     7  H    2.102252   2.433175   2.433158   2.980829   1.024521
     8  H    2.102252   2.433158   2.980829   2.433175   1.024521
                    6          7          8
     6  H    0.000000
     7  H    1.649918   0.000000
     8  H    1.649918   1.649918   0.000000
 Stoichiometry    CH6N(1+)
 Framework group  C3[C3(CN),X(H6)]
 Deg. of freedom     6
 Full point group                 C3      NOp   3
 RotChk:  IX=0 Diff= 0.00D+00
 Largest Abelian subgroup         C1      NOp   1
 Largest concise Abelian subgroup C1      NOp   1
                         Standard orientation:                         
 ---------------------------------------------------------------------
 Center     Atomic      Atomic             Coordinates (Angstroms)
 Number     Number       Type             X           Y           Z
 ---------------------------------------------------------------------
      1          6           0        0.000000    0.000000   -0.792901
      2          1           0        1.033085   -0.096122   -1.138028
      3          1           0       -0.599787   -0.846617   -1.138028
      4          1           0       -0.433298    0.942739   -1.138028
      5          7           0        0.000000    0.000000    0.704008
      6          1           0       -0.948482    0.088273    1.081146
      7          1           0        0.397794   -0.865546    1.081146
      8          1           0        0.550687    0.777273    1.081146
 ---------------------------------------------------------------------
 Rotational constants (GHZ):     84.2535325     20.2697643     20.2697643
 Leave Link  202 at Thu Feb 26 00:48:14 2015, MaxMem= 1073741824 cpu:       0.0
 (Enter /apps/gaussian/g09_c01/g09/l301.exe)
 Standard basis: Aug-CC-pVDZ (5D, 7F)
 Ernie: Thresh=  0.10000D-02 Tol=  0.10000D-05 Strict=F.
 Ernie:  4 primitive shells out of 92 were deleted.
 There are   100 symmetry adapted basis functions of A   symmetry.
 Integral buffers will be    131072 words long.
 Raffenetti 2 integral format.
 Two-electron integral symmetry is turned on.
   100 basis functions,   152 primitive gaussians,   104 cartesian basis functions
     9 alpha electrons        9 beta electrons
       nuclear repulsion energy        47.8758896723 Hartrees.
 IExCor= 1009 DFT=T Ex+Corr=PBE1PBE ExCW=0 ScaHFX=  0.250000
 ScaDFX=  0.750000  0.750000  1.000000  1.000000 ScalE2=  1.000000  1.000000
 IRadAn=      5 IRanWt=     -1 IRanGd=            0 ICorTp=0
 NAtoms=    8 NActive=    8 NUniq=    4 SFac= 4.00D+00 NAtFMM=   60 NAOKFM=F Big=F
 Leave Link  301 at Thu Feb 26 00:48:14 2015, MaxMem= 1073741824 cpu:       0.3
 (Enter /apps/gaussian/g09_c01/g09/l302.exe)
 NPDir=0 NMtPBC=     1 NCelOv=     1 NCel=       1 NClECP=     1 NCelD=      1
         NCelK=      1 NCelE2=     1 NClLst=     1 CellRange=     0.0.
 One-electron integrals computed using PRISM.
 NBasis=   100 RedAO= T  NBF=   100
 NBsUse=   100 1.00D-06 NBFU=   100
 Precomputing XC quadrature grid using
 IXCGrd= 2 IRadAn=           5 IRanWt=          -1 IRanGd=           0 AccXCQ= 0.00D+00.
 NRdTot=     685 NPtTot=      183098 NUsed=      188010 NTot=      188042
 NSgBfM=   104   104   104   104   104 NAtAll=     8     8.
 Leave Link  302 at Thu Feb 26 00:48:14 2015, MaxMem= 1073741824 cpu:       1.2
 (Enter /apps/gaussian/g09_c01/g09/l303.exe)
 DipDrv:  MaxL=1.
 Leave Link  303 at Thu Feb 26 00:48:14 2015, MaxMem= 1073741824 cpu:       0.2
 (Enter /apps/gaussian/g09_c01/g09/l401.exe)
 Initial guess read from the read-write file.
 B after Tr=     0.000000    0.000000    0.000000
         Rot=    1.000000    0.000000    0.000000    0.000000 Ang=   0.00 deg.
 Guess basis will be translated and rotated to current coordinates.
 Initial guess orbital symmetries:
       Occupied  (A) (A) (A) (A) (E) (E) (A) (E) (E)
       Virtual   (A) (A) (E) (E) (E) (E) (A) (A) (E) (E) (A) (E)
                 (E) (A) (E) (E) (E) (E) (A) (E) (E) (A) (A) (E)
                 (E) (A) (A) (E) (E) (E) (E) (A) (E) (E) (A) (A)
                 (E) (E) (A) (E) (E) (A) (E) (E) (E) (E) (A) (E)
                 (E) (E) (E) (A) (A) (A) (E) (E) (E) (E) (E) (E)
                 (A) (A) (A) (E) (E) (A) (E) (E) (A) (E) (E) (A)
                 (E) (E) (E) (E) (A) (E) (E) (E) (E) (A) (A) (E)
                 (E) (A) (E) (E) (A) (E) (E)
 The electronic state of the initial guess is 1-A.
 Generating alternative initial guess.
 Harris functional with IExCor= 1009 diagonalized for initial guess.
 ExpMin= 2.97D-02 ExpMax= 9.05D+03 ExpMxC= 3.09D+02 IAcc=3 IRadAn=         5 AccDes= 0.00D+00
 HarFok:  IExCor= 1009 AccDes= 0.00D+00 IRadAn=         5 IDoV= 1
 ScaDFX=  1.000000  1.000000  1.000000  1.000000
 FoFCou: FMM=F IPFlag=           0 FMFlag=      100000 FMFlg1=           0
         NFxFlg=           0 DoJE=T BraDBF=F KetDBF=T FulRan=T
         Omega=  0.000000  0.000000  1.000000  0.000000  0.000000 ICntrl=     500 IOpCl=  0
         NMat0=    1 NMatS0=    1 NMatT0=    0 NMatD0=    1 NMtDS0=    0 NMtDT0=    0
         I1Cent=           4 NGrid=           0.
 Petite list used in FoFCou.
 DSYEVD returned Info=         201 IAlg= 4 N=   100 NDim=   100 NE2=    10737194 trying DSYEV.
 Harris En= -96.1931410720387    
 Leave Link  401 at Thu Feb 26 00:48:14 2015, MaxMem= 1073741824 cpu:       2.7
 (Enter /apps/gaussian/g09_c01/g09/l502.exe)
 Closed shell SCF:
 Requested convergence on RMS density matrix=1.00D-08 within 128 cycles.
 Requested convergence on MAX density matrix=1.00D-06.
 Requested convergence on             energy=1.00D-06.
 No special actions if energy rises.
 Using DIIS extrapolation, IDIIS=  1040.
 Integral symmetry usage will be decided dynamically.
       187925 words used for storage of precomputed grid.
 Keep R1 ints in memory in canonical form, NReq=16077209.
 IEnd=      240235 IEndB=      240235 NGot=  1073741824 MDV=  1058620592
 LenX=  1058620592 LenY=  1058609335
 Symmetry not used in FoFDir.
 MinBra= 0 MaxBra= 2 Meth= 1.
 IRaf=       0 NMat=   1 IRICut=       1 DoRegI=T DoRafI=F ISym2E= 0 JSym2E=0.

 Cycle   1  Pass 1  IDiag  1:
 E= -96.1086202028996    
 DIIS: error= 1.17D-03 at cycle   1 NSaved=   1.
 NSaved= 1 IEnMin= 1 EnMin= -96.1086202028996     IErMin= 1 ErrMin= 1.17D-03
 ErrMax= 1.17D-03 EMaxC= 1.00D-01 BMatC= 9.06D-05 BMatP= 9.06D-05
 IDIUse=3 WtCom= 9.88D-01 WtEn= 1.17D-02
 Coeff-Com:  0.100D+01
 Coeff-En:   0.100D+01
 Coeff:      0.100D+01
 Gap=     0.433 Goal=   None    Shift=    0.000
 DSYEVD returned Info=         201 IAlg= 4 N=   100 NDim=   100 NE2=    10586092 trying DSYEV.
 GapD=    0.433 DampG=2.000 DampE=1.000 DampFc=2.0000 IDamp=-1.
 RMSDP=2.56D-04 MaxDP=4.37D-03              OVMax= 4.61D-03

 Cycle   2  Pass 1  IDiag  1:
 E= -96.1087358880725     Delta-E=       -0.000115685173 Rises=F Damp=F
 DIIS: error= 1.99D-04 at cycle   2 NSaved=   2.
 NSaved= 2 IEnMin= 2 EnMin= -96.1087358880725     IErMin= 2 ErrMin= 1.99D-04
 ErrMax= 1.99D-04 EMaxC= 1.00D-01 BMatC= 3.10D-06 BMatP= 9.06D-05
 IDIUse=3 WtCom= 9.98D-01 WtEn= 1.99D-03
 Coeff-Com:  0.168D-01 0.983D+00
 Coeff-En:   0.000D+00 0.100D+01
 Coeff:      0.167D-01 0.983D+00
 Gap=     0.431 Goal=   None    Shift=    0.000
 DSYEVD returned Info=         201 IAlg= 4 N=   100 NDim=   100 NE2=    10586092 trying DSYEV.
 RMSDP=3.16D-05 MaxDP=7.15D-04 DE=-1.16D-04 OVMax= 8.34D-04

 Cycle   3  Pass 1  IDiag  1:
 E= -96.1087369226808     Delta-E=       -0.000001034608 Rises=F Damp=F
 DIIS: error= 2.26D-04 at cycle   3 NSaved=   3.
 NSaved= 3 IEnMin= 3 EnMin= -96.1087369226808     IErMin= 2 ErrMin= 1.99D-04
 ErrMax= 2.26D-04 EMaxC= 1.00D-01 BMatC= 2.37D-06 BMatP= 3.10D-06
 IDIUse=3 WtCom= 9.98D-01 WtEn= 2.26D-03
 Coeff-Com: -0.280D-01 0.472D+00 0.556D+00
 Coeff-En:   0.000D+00 0.380D+00 0.620D+00
 Coeff:     -0.279D-01 0.471D+00 0.557D+00
 Gap=     0.431 Goal=   None    Shift=    0.000
 DSYEVD returned Info=         201 IAlg= 4 N=   100 NDim=   100 NE2=    10586092 trying DSYEV.
 RMSDP=1.14D-05 MaxDP=3.09D-04 DE=-1.03D-06 OVMax= 3.74D-04

 Cycle   4  Pass 1  IDiag  1:
 E= -96.1087390970284     Delta-E=       -0.000002174348 Rises=F Damp=F
 DIIS: error= 1.63D-05 at cycle   4 NSaved=   4.
 NSaved= 4 IEnMin= 4 EnMin= -96.1087390970284     IErMin= 4 ErrMin= 1.63D-05
 ErrMax= 1.63D-05 EMaxC= 1.00D-01 BMatC= 3.95D-08 BMatP= 2.37D-06
 IDIUse=1 WtCom= 1.00D+00 WtEn= 0.00D+00
 Coeff-Com: -0.773D-02 0.102D+00 0.179D+00 0.727D+00
 Coeff:     -0.773D-02 0.102D+00 0.179D+00 0.727D+00
 Gap=     0.431 Goal=   None    Shift=    0.000
 DSYEVD returned Info=         201 IAlg= 4 N=   100 NDim=   100 NE2=    10586092 trying DSYEV.
 RMSDP=1.59D-06 MaxDP=5.59D-05 DE=-2.17D-06 OVMax= 6.17D-05

 Cycle   5  Pass 1  IDiag  1:
 E= -96.1087391271470     Delta-E=       -0.000000030119 Rises=F Damp=F
 DIIS: error= 7.92D-06 at cycle   5 NSaved=   5.
 NSaved= 5 IEnMin= 5 EnMin= -96.1087391271470     IErMin= 5 ErrMin= 7.92D-06
 ErrMax= 7.92D-06 EMaxC= 1.00D-01 BMatC= 4.45D-09 BMatP= 3.95D-08
 IDIUse=1 WtCom= 1.00D+00 WtEn= 0.00D+00
 Coeff-Com: -0.144D-02 0.982D-02 0.397D-01 0.309D+00 0.643D+00
 Coeff:     -0.144D-02 0.982D-02 0.397D-01 0.309D+00 0.643D+00
 Gap=     0.431 Goal=   None    Shift=    0.000
 DSYEVD returned Info=         201 IAlg= 4 N=   100 NDim=   100 NE2=    10586092 trying DSYEV.
 RMSDP=5.44D-07 MaxDP=1.57D-05 DE=-3.01D-08 OVMax= 1.86D-05

 Cycle   6  Pass 1  IDiag  1:
 E= -96.1087391306807     Delta-E=       -0.000000003534 Rises=F Damp=F
 DIIS: error= 2.31D-06 at cycle   6 NSaved=   6.
 NSaved= 6 IEnMin= 6 EnMin= -96.1087391306807     IErMin= 6 ErrMin= 2.31D-06
 ErrMax= 2.31D-06 EMaxC= 1.00D-01 BMatC= 2.87D-10 BMatP= 4.45D-09
 IDIUse=1 WtCom= 1.00D+00 WtEn= 0.00D+00
 Coeff-Com:  0.132D-03-0.566D-02-0.154D-02 0.492D-01 0.252D+00 0.706D+00
 Coeff:      0.132D-03-0.566D-02-0.154D-02 0.492D-01 0.252D+00 0.706D+00
 Gap=     0.431 Goal=   None    Shift=    0.000
 DSYEVD returned Info=         201 IAlg= 4 N=   100 NDim=   100 NE2=    10586092 trying DSYEV.
 RMSDP=1.75D-07 MaxDP=4.75D-06 DE=-3.53D-09 OVMax= 7.32D-06

 Cycle   7  Pass 1  IDiag  1:
 E= -96.1087391309599     Delta-E=       -0.000000000279 Rises=F Damp=F
 DIIS: error= 1.20D-07 at cycle   7 NSaved=   7.
 NSaved= 7 IEnMin= 7 EnMin= -96.1087391309599     IErMin= 7 ErrMin= 1.20D-07
 ErrMax= 1.20D-07 EMaxC= 1.00D-01 BMatC= 1.04D-12 BMatP= 2.87D-10
 IDIUse=1 WtCom= 1.00D+00 WtEn= 0.00D+00
 Coeff-Com:  0.210D-04-0.230D-03-0.948D-03-0.386D-02-0.443D-02 0.394D-01
 Coeff-Com:  0.970D+00
 Coeff:      0.210D-04-0.230D-03-0.948D-03-0.386D-02-0.443D-02 0.394D-01
 Coeff:      0.970D+00
 Gap=     0.431 Goal=   None    Shift=    0.000
 DSYEVD returned Info=         201 IAlg= 4 N=   100 NDim=   100 NE2=    10586092 trying DSYEV.
 RMSDP=1.18D-08 MaxDP=1.85D-07 DE=-2.79D-10 OVMax= 3.13D-07

 Cycle   8  Pass 1  IDiag  1:
 E= -96.1087391309613     Delta-E=       -0.000000000001 Rises=F Damp=F
 DIIS: error= 7.58D-09 at cycle   8 NSaved=   8.
 NSaved= 8 IEnMin= 8 EnMin= -96.1087391309613     IErMin= 8 ErrMin= 7.58D-09
 ErrMax= 7.58D-09 EMaxC= 1.00D-01 BMatC= 5.48D-15 BMatP= 1.04D-12
 IDIUse=1 WtCom= 1.00D+00 WtEn= 0.00D+00
 Coeff-Com:  0.758D-06 0.445D-04-0.558D-04-0.868D-03-0.364D-02-0.472D-02
 Coeff-Com:  0.628D-01 0.946D+00
 Coeff:      0.758D-06 0.445D-04-0.558D-04-0.868D-03-0.364D-02-0.472D-02
 Coeff:      0.628D-01 0.946D+00
 Gap=     0.431 Goal=   None    Shift=    0.000
 DSYEVD returned Info=         201 IAlg= 4 N=   100 NDim=   100 NE2=    10586092 trying DSYEV.
 RMSDP=9.34D-10 MaxDP=1.56D-08 DE=-1.42D-12 OVMax= 3.26D-08

 SCF Done:  E(RPBE1PBE) =  -96.1087391310     A.U. after    8 cycles
             Convg  =    0.9337D-09             -V/T =  2.0070
 KE= 9.544140673437D+01 PE=-3.135402064678D+02 EE= 7.411417093017D+01
 Leave Link  502 at Thu Feb 26 00:48:16 2015, MaxMem= 1073741824 cpu:      14.4
 (Enter /apps/gaussian/g09_c01/g09/l801.exe)
 Range of M.O.s used for correlation:     1   100
 NBasis=   100 NAE=     9 NBE=     9 NFC=     0 NFV=     0
 NROrb=    100 NOA=     9 NOB=     9 NVA=    91 NVB=    91

 **** Warning!!: The largest alpha MO coefficient is  0.21941026D+02

 Leave Link  801 at Thu Feb 26 00:48:16 2015, MaxMem= 1073741824 cpu:       0.1
 (Enter /apps/gaussian/g09_c01/g09/l1002.exe)
 Minotr:  Closed shell wavefunction.
          Direct CPHF calculation.
          Differentiating once with respect to electric field.
                with respect to dipole field.
          Electric field/nuclear overlap derivatives assumed to be zero.
          Using symmetry in CPHF.
          Requested convergence is 1.0D-08 RMS, and 1.0D-07 maximum.
          Secondary convergence is 1.0D-12 RMS, and 1.0D-12 maximum.
          NewPWx=F KeepS1=T KeepF1=T KeepIn=T MapXYZ=F SortEE=F KeepMc=T.
          MDV=    1073741756 using IRadAn=       1.
 Generate precomputed XC quadrature information.
          Keep R1 ints in memory in canonical form, NReq=15731880.
 Symmetry not used in FoFDir.
 MinBra= 0 MaxBra= 2 Meth= 1.
 IRaf=       0 NMat=   1 IRICut=       1 DoRegI=T DoRafI=F ISym2E= 0 JSym2E=0.
          Solving linear equations simultaneously, MaxMat=       0.
          There are     3 degrees of freedom in the 1st order CPHF.  IDoFFX=0.
      3 vectors produced by pass  0 Test12= 2.73D-14 3.33D-08 XBig12= 9.76D+00 1.24D+00.
 AX will form     3 AO Fock derivatives at one time.
      3 vectors produced by pass  1 Test12= 2.73D-14 3.33D-08 XBig12= 5.48D-01 3.29D-01.
      3 vectors produced by pass  2 Test12= 2.73D-14 3.33D-08 XBig12= 1.15D-01 9.26D-02.
      3 vectors produced by pass  3 Test12= 2.73D-14 3.33D-08 XBig12= 4.60D-03 1.88D-02.
      3 vectors produced by pass  4 Test12= 2.73D-14 3.33D-08 XBig12= 9.16D-04 6.15D-03.
      3 vectors produced by pass  5 Test12= 2.73D-14 3.33D-08 XBig12= 2.89D-05 1.45D-03.
      3 vectors produced by pass  6 Test12= 2.73D-14 3.33D-08 XBig12= 1.01D-06 2.54D-04.
      3 vectors produced by pass  7 Test12= 2.73D-14 3.33D-08 XBig12= 1.53D-08 4.67D-05.
      1 vectors produced by pass  8 Test12= 2.73D-14 3.33D-08 XBig12= 3.56D-11 1.79D-06.
      1 vectors produced by pass  9 Test12= 2.73D-14 3.33D-08 XBig12= 6.87D-14 8.93D-08.
 Inverted reduced A of dimension    26 with in-core refinement.
 End of Minotr Frequency-dependent properties file   721 does not exist.
 End of Minotr Frequency-dependent properties file   722 does not exist.
 Leave Link 1002 at Thu Feb 26 00:48:20 2015, MaxMem= 1073741824 cpu:      33.0
 (Enter /apps/gaussian/g09_c01/g09/l1101.exe)
 Using compressed storage, NAtomX=     8.
 Will process   9 centers per pass.
 Leave Link 1101 at Thu Feb 26 00:48:20 2015, MaxMem= 1073741824 cpu:       1.1
 (Enter /apps/gaussian/g09_c01/g09/l1102.exe)
 Symmetrizing basis deriv contribution to polar:
 IMax=3 JMax=2 DiffMx= 0.00D+00
 Leave Link 1102 at Thu Feb 26 00:48:20 2015, MaxMem= 1073741824 cpu:       0.2
 (Enter /apps/gaussian/g09_c01/g09/l1110.exe)
 Forming Gx(P) for the SCF density, NAtomX=     8.
 Integral derivatives from FoFDir/FoFCou, PRISM(SPDF).
 Do as many integral derivatives as possible in FoFDir.
 G2DrvN: MDV=    1073741656.
 G2DrvN: will do     9 centers at a time, making    1 passes doing MaxLOS=2.
 Calling FoFCou, ICntrl=  3107 FMM=F I1Cent=   0 AccDes= 0.00D+00.
 FoFCou: FMM=F IPFlag=           0 FMFlag=      100000 FMFlg1=           0
         NFxFlg=           0 DoJE=F BraDBF=F KetDBF=F FulRan=T
         Omega=  0.000000  0.000000  1.000000  0.000000  0.000000 ICntrl=    3107 IOpCl=  0
         NMat0=    1 NMatS0=    1 NMatT0=    0 NMatD0=    4 NMtDS0=    3 NMtDT0=    0
         I1Cent=           0 NGrid=           0.
 Petite list used in FoFCou.
 FoFDir/FoFCou used for L=0 through L=2.
 End of G2Drv Frequency-dependent properties file   721 does not exist.
 End of G2Drv Frequency-dependent properties file   722 does not exist.
 Leave Link 1110 at Thu Feb 26 00:48:28 2015, MaxMem= 1073741824 cpu:      58.1
 (Enter /apps/gaussian/g09_c01/g09/l1002.exe)
 Minotr:  Closed shell wavefunction.
          IDoAtm=11111111
          Direct CPHF calculation.
          Differentiating once with respect to electric field.
                with respect to dipole field.
          Differentiating once with respect to nuclear coordinates.
          Using symmetry in CPHF.
          Requested convergence is 1.0D-08 RMS, and 1.0D-07 maximum.
          Secondary convergence is 1.0D-12 RMS, and 1.0D-12 maximum.
          NewPWx=T KeepS1=F KeepF1=F KeepIn=T MapXYZ=F SortEE=F KeepMc=T.
          MDV=    1073741740 using IRadAn=       1.
 Generate precomputed XC quadrature information.
          Keep R1 ints in memory in canonical form, NReq=15732048.
 Symmetry not used in FoFDir.
 MinBra= 0 MaxBra= 2 Meth= 1.
 IRaf=       0 NMat=   1 IRICut=       1 DoRegI=T DoRafI=F ISym2E= 0 JSym2E=0.
          Solving linear equations simultaneously, MaxMat=       0.
          There are    15 degrees of freedom in the 1st order CPHF.  IDoFFX=4.
 Will reuse    3 saved solutions.
     12 vectors produced by pass  0 Test12= 5.46D-15 6.67D-09 XBig12= 7.83D-02 9.20D-02.
 AX will form    12 AO Fock derivatives at one time.
     12 vectors produced by pass  1 Test12= 5.46D-15 6.67D-09 XBig12= 9.64D-03 4.20D-02.
     12 vectors produced by pass  2 Test12= 5.46D-15 6.67D-09 XBig12= 3.51D-04 6.91D-03.
     12 vectors produced by pass  3 Test12= 5.46D-15 6.67D-09 XBig12= 2.14D-06 3.09D-04.
     12 vectors produced by pass  4 Test12= 5.46D-15 6.67D-09 XBig12= 5.13D-09 1.74D-05.
     11 vectors produced by pass  5 Test12= 5.46D-15 6.67D-09 XBig12= 6.59D-12 4.16D-07.
      1 vectors produced by pass  6 Test12= 5.46D-15 6.67D-09 XBig12= 7.09D-15 1.58D-08.
 Inverted reduced A of dimension    72 with in-core refinement.
 FullF1:  Do perturbations    1 to    15.
 Isotropic polarizability for W=    0.000000       20.26 Bohr**3.
 FullF1:  Do perturbations    1 to     6.
 End of Minotr Frequency-dependent properties file   721 does not exist.
 End of Minotr Frequency-dependent properties file   722 does not exist.
 Leave Link 1002 at Thu Feb 26 00:48:35 2015, MaxMem= 1073741824 cpu:      60.5
 (Enter /apps/gaussian/g09_c01/g09/l701.exe)
 Compute integral second derivatives.
 ... and contract with generalized density number  0.
 Leave Link  701 at Thu Feb 26 00:48:35 2015, MaxMem= 1073741824 cpu:       1.3
 (Enter /apps/gaussian/g09_c01/g09/l702.exe)
 L702 exits ... SP integral derivatives will be done elsewhere.
 Leave Link  702 at Thu Feb 26 00:48:36 2015, MaxMem= 1073741824 cpu:       0.1
 (Enter /apps/gaussian/g09_c01/g09/l703.exe)
 Compute integral second derivatives, UseDBF=F ICtDFT=           0.
 Integral derivatives from FoFDir, PRISM(SPDF).
 Calling FoFJK, ICntrl=    100127 FMM=F ISym2X=1 I1Cent= 0 IOpClX= 0 NMat=1 NMatS=1 NMatT=0.
 FoFCou: FMM=F IPFlag=           0 FMFlag=      100000 FMFlg1=         800
         NFxFlg=           0 DoJE=F BraDBF=F KetDBF=F FulRan=T
         Omega=  0.000000  0.000000  1.000000  0.000000  0.000000 ICntrl=  100127 IOpCl=  0
         NMat0=    1 NMatS0=    1 NMatT0=    0 NMatD0=    1 NMtDS0=    0 NMtDT0=    0
         I1Cent=           0 NGrid=           0.
 Petite list used in FoFCou.
 Leave Link  703 at Thu Feb 26 00:48:42 2015, MaxMem= 1073741824 cpu:      49.5
 (Enter /apps/gaussian/g09_c01/g09/l716.exe)
 Dipole        =-3.06005221D-15-2.62376926D-15 8.63690581D-01
 Polarizability= 1.92856939D+01 8.28220555D-06 1.92857069D+01
                 5.45517417D-06 2.04279348D-05 2.22048938D+01
 HyperPolar    = 1.61350195D+00-4.62179780D-01-1.61820504D+00
                 4.59926111D-01-2.97987446D+00-1.45519110D-03
                -2.98080815D+00-1.90269545D-03-1.38225562D-03
                 7.19190518D+00
 ***** Axes restored to original set *****
 -------------------------------------------------------------------
 Center     Atomic                   Forces (Hartrees/Bohr)
 Number     Number              X              Y              Z
 -------------------------------------------------------------------
      1        6           0.000000000    0.000000000   -0.000520567
      2        1          -0.000002933   -0.000032439   -0.000015185
      3        1          -0.000026626    0.000018759   -0.000015185
      4        1           0.000029559    0.000013679   -0.000015185
      5        7           0.000000000    0.000000000    0.000479015
      6        1           0.000002548    0.000029297    0.000029036
      7        1          -0.000026645   -0.000012442    0.000029036
      8        1           0.000024098   -0.000016855    0.000029036
 -------------------------------------------------------------------
 Cartesian Forces:  Max     0.000520567 RMS     0.000145694
 Force constants in Cartesian coordinates: 
                1             2             3             4             5 
      1  0.635354D+00
      2  0.000000D+00  0.635353D+00
      3  0.000000D+00  0.000000D+00  0.435901D+00
      4 -0.507192D-01 -0.248110D-01 -0.814243D-02  0.470171D-01
      5 -0.248109D-01 -0.315099D+00 -0.874914D-01  0.262286D-01  0.326499D+00
      6 -0.662870D-02 -0.712234D-01 -0.718370D-01  0.827458D-02  0.889124D-01
      7 -0.227517D+00  0.126885D+00 -0.716986D-01  0.398511D-02 -0.398579D-02
      8  0.126885D+00 -0.138301D+00  0.507973D-01  0.222891D-01 -0.117204D-01
      9 -0.583668D-01  0.413523D-01 -0.718370D-01  0.891616D-02 -0.441058D-02
     10 -0.270491D+00 -0.102075D+00  0.798409D-01  0.131496D-03  0.176091D-02
     11 -0.102075D+00 -0.953272D-01  0.366940D-01 -0.245139D-01 -0.786681D-02
     12  0.649954D-01  0.298709D-01 -0.718368D-01 -0.957677D-02 -0.268995D-02
     13 -0.958534D-01  0.000000D+00  0.000000D+00 -0.111092D-02  0.706837D-03
     14  0.000000D+00 -0.958532D-01  0.000000D+00  0.707008D-03  0.642145D-02
     15  0.000000D+00  0.000000D+00 -0.183669D+00  0.444795D-03  0.478183D-02
     16 -0.153741D-03  0.606451D-03 -0.176251D-03  0.439844D-03  0.578571D-04
     17  0.606348D-03  0.630571D-02 -0.189664D-02  0.578044D-04  0.105587D-02
     18 -0.313957D-02 -0.337397D-01 -0.122406D-01  0.201872D-03  0.217033D-02
     19  0.521603D-02  0.249383D-02  0.173056D-02  0.226911D-03  0.262339D-03
     20  0.249379D-02  0.935955D-03  0.795569D-03  0.830674D-03  0.256286D-03
     21  0.307893D-01  0.141509D-01 -0.122404D-01  0.344794D-03 -0.673964D-03
     22  0.416567D-02 -0.310017D-02 -0.155440D-02  0.297881D-04 -0.219758D-03
     23 -0.310026D-02  0.198632D-02  0.110088D-02 -0.788095D-03  0.453552D-03
     24 -0.276497D-01  0.195887D-01 -0.122405D-01 -0.462955D-03 -0.598788D-03
                6             7             8             9            10 
      6  0.877135D-01
      7  0.245882D-02  0.233914D+00
      8  0.963870D-02 -0.134134D+00  0.139602D+00
      9  0.461396D-02  0.728631D-01 -0.516222D-01  0.877135D-01
     10 -0.638406D-03 -0.157196D-01 -0.109125D-01  0.711795D-02  0.279343D+00
     11  0.992691D-02  0.153623D-01  0.798427D-02 -0.694875D-02  0.107905D+00
     12  0.461396D-02 -0.827775D-02 -0.551633D-02  0.461396D-02 -0.811377D-01
     13 -0.345815D-02  0.392623D-02 -0.361511D-02 -0.304580D-01  0.515071D-02
     14 -0.371665D-01 -0.361507D-02  0.138444D-02  0.215780D-01  0.290822D-02
     15 -0.206118D-01  0.391883D-02 -0.277616D-02 -0.206117D-01 -0.436370D-02
     16  0.180962D-03 -0.224346D-03 -0.570140D-03 -0.769296D-03 -0.888025D-04
     17  0.194338D-02 -0.180566D-05  0.707544D-03  0.679015D-03  0.151290D-03
     18 -0.667508D-02 -0.756067D-03  0.383812D-04  0.109088D-02  0.750043D-03
     19 -0.203397D-03  0.784024D-03  0.352637D-03 -0.895645D-03  0.951945D-03
     20 -0.100574D-02 -0.215700D-03 -0.300684D-03  0.500590D-03  0.237804D-03
     21  0.109088D-02 -0.287088D-03  0.700324D-03  0.109154D-02 -0.198050D-02
     22  0.142987D-04  0.851779D-03 -0.295635D-03  0.159253D-02  0.722231D-03
     23 -0.102595D-02 -0.295688D-03  0.643933D-03 -0.112841D-02  0.236335D-04
     24  0.109154D-02  0.177863D-02 -0.125999D-02 -0.667508D-02  0.411273D-03
               11            12            13            14            15 
     11  0.941731D-01
     12 -0.372902D-01  0.877135D-01
     13  0.290821D-02  0.339160D-01  0.732787D+00
[...]
      4        1          -0.000000052    0.000000121   -0.000000002
      5        7           0.000000000    0.000000000    0.000000000
      6        1          -0.000000123    0.000000009   -0.000000003
      7        1           0.000000054   -0.000000111   -0.000000003
      8        1           0.000000069    0.000000102   -0.000000003
 -------------------------------------------------------------------
 Cartesian Forces:  Max     0.000000131 RMS     0.000000064
 Force constants in Cartesian coordinates: 
                1             2             3             4             5 
      1  0.635404D+00
      2  0.000000D+00  0.635403D+00
      3  0.000000D+00  0.000000D+00  0.433911D+00
      4 -0.507308D-01 -0.248141D-01 -0.813468D-02  0.470248D-01
      5 -0.248140D-01 -0.315122D+00 -0.874000D-01  0.262308D-01  0.326507D+00
      6 -0.662379D-02 -0.711641D-01 -0.717575D-01  0.826575D-02  0.888105D-01
      7 -0.227535D+00  0.126892D+00 -0.716233D-01  0.398968D-02 -0.399026D-02
      8  0.126892D+00 -0.138318D+00  0.507449D-01  0.222846D-01 -0.117087D-01
      9 -0.583179D-01  0.413184D-01 -0.717576D-01  0.891067D-02 -0.440669D-02
     10 -0.270514D+00 -0.102078D+00  0.797579D-01  0.137584D-03  0.176625D-02
     11 -0.102078D+00 -0.953389D-01  0.366550D-01 -0.245086D-01 -0.785659D-02
     12  0.649417D-01  0.298455D-01 -0.717574D-01 -0.957070D-02 -0.268700D-02
     13 -0.958455D-01  0.000000D+00  0.000000D+00 -0.111250D-02  0.707271D-03
     14  0.000000D+00 -0.958452D-01  0.000000D+00  0.707519D-03  0.642415D-02
     15  0.000000D+00  0.000000D+00 -0.182067D+00  0.445343D-03  0.478659D-02
     16 -0.158376D-03  0.606794D-03 -0.175870D-03  0.435996D-03  0.575572D-04
     17  0.606778D-03  0.630606D-02 -0.189205D-02  0.575128D-04  0.104885D-02
     18 -0.313336D-02 -0.336750D-01 -0.121907D-01  0.201869D-03  0.216984D-02
     19  0.521548D-02  0.249575D-02  0.172639D-02  0.226130D-03  0.262063D-03
     20  0.249580D-02  0.932234D-03  0.793605D-03  0.828708D-03  0.255313D-03
     21  0.307302D-01  0.141239D-01 -0.121905D-01  0.346157D-03 -0.674381D-03
     22  0.416444D-02 -0.310256D-02 -0.155061D-02  0.293543D-04 -0.219577D-03
     23 -0.310257D-02  0.198327D-02  0.109826D-02 -0.786249D-03  0.452129D-03
     24 -0.275968D-01  0.195510D-01 -0.121905D-01 -0.464364D-03 -0.598933D-03
                6             7             8             9            10 
      6  0.876065D-01
      7  0.245834D-02  0.233920D+00
      8  0.963197D-02 -0.134135D+00  0.139612D+00
      9  0.461608D-02  0.727793D-01 -0.515636D-01  0.876065D-01
     10 -0.639027D-03 -0.157058D-01 -0.109134D-01  0.711236D-02  0.279353D+00
     11  0.992022D-02  0.153614D-01  0.798677D-02 -0.694497D-02  0.107904D+00
     12  0.461608D-02 -0.827165D-02 -0.551352D-02  0.461608D-02 -0.810450D-01
     13 -0.345343D-02  0.392745D-02 -0.361724D-02 -0.304152D-01  0.515275D-02
     14 -0.371143D-01 -0.361712D-02  0.138434D-02  0.215478D-01  0.290988D-02
     15 -0.205889D-01  0.392268D-02 -0.277901D-02 -0.205887D-01 -0.436810D-02
     16  0.181072D-03 -0.224300D-03 -0.568652D-03 -0.769358D-03 -0.890999D-04
     17  0.194520D-02 -0.200638D-05  0.705744D-03  0.677157D-03  0.151187D-03
     18 -0.667319D-02 -0.757110D-03  0.374098D-04  0.109017D-02  0.750873D-03
     19 -0.201756D-03  0.781971D-03  0.351726D-03 -0.893873D-03  0.945466D-03
     20 -0.100486D-02 -0.214947D-03 -0.300487D-03  0.501249D-03  0.236585D-03
     21  0.109017D-02 -0.286509D-03  0.701617D-03  0.109076D-02 -0.198007D-02
     22  0.128423D-04  0.845812D-03 -0.294120D-03  0.159406D-02  0.720335D-03
     23 -0.102474D-02 -0.294165D-03  0.639037D-03 -0.112941D-02  0.232666D-04
     24  0.109076D-02  0.177820D-02 -0.125974D-02 -0.667319D-02  0.410953D-03
               11            12            13            14            15 
     11  0.941788D-01
     12 -0.372469D-01  0.876065D-01
     13  0.290979D-02  0.338684D-01  0.732745D+00
     14  0.159019D-03  0.155663D-01  0.000000D+00  0.732745D+00
     15 -0.200776D-02 -0.205887D-01  0.000000D+00  0.000000D+00  0.542984D+00
     16  0.717859D-03  0.881031D-03 -0.633973D-01 -0.284457D-01 -0.106207D-01
     17  0.570583D-03  0.523492D-03 -0.284456D-01 -0.366514D+00 -0.114160D+00
     18 -0.102684D-03  0.109076D-02 -0.111685D-01 -0.120050D+00 -0.997172D-01
     19  0.236630D-03 -0.177513D-02 -0.315370D+00 -0.117031D+00  0.104175D+00
     20  0.539383D-03 -0.815787D-03 -0.117031D+00 -0.114542D+00  0.478820D-01
     21 -0.910094D-03 -0.667319D-02  0.109550D+00  0.503526D-01 -0.997171D-01
     22 -0.543379D-03  0.971114D-03 -0.266100D+00  0.145476D+00 -0.935549D-01
     23 -0.238892D-03  0.327705D-03  0.145476D+00 -0.163811D+00  0.662777D-01
     24  0.636971D-03  0.109017D-02 -0.983820D-01  0.696971D-01 -0.997172D-01
               16            17            18            19            20 
     16  0.589613D-01
     17  0.305933D-01  0.384955D+00
     18  0.115051D-01  0.123670D+00  0.106071D+00
     19 -0.328403D-03  0.910169D-03 -0.553488D-03  0.329951D+00
     20 -0.311891D-01 -0.109716D-01  0.141481D-01  0.125863D+00  0.113965D+00
     21 -0.135306D-01 -0.416927D-02  0.516442D-02 -0.112854D+00 -0.518712D-01
     22  0.480034D-02 -0.387125D-02  0.315460D-02 -0.214220D-01  0.190107D-01
     23  0.282280D-01 -0.161004D-01  0.138025D-01 -0.130885D-01  0.101219D-01
     24  0.125293D-01 -0.659470D-02  0.516442D-02  0.103760D-01 -0.963319D-02
               21            22            23            24 
     21  0.106071D+00
     22 -0.119758D-01  0.276962D+00
     23 -0.755337D-02 -0.156456D+00  0.166954D+00
     24  0.516442D-02  0.101349D+00 -0.717986D-01  0.106071D+00
 Red2BG is reusing G-inverse.
 Force constants in internal coordinates: 
                1             2             3             4             5 
      1  0.358331D+00
      2  0.673922D-03  0.358331D+00
      3  0.673936D-03  0.673912D-03  0.358331D+00
      4  0.249199D-02  0.249194D-02  0.249200D-02  0.293882D+00
      5 -0.148961D-02  0.268076D-03  0.267729D-03  0.496888D-02  0.434648D+00
      6  0.268099D-03  0.267734D-03 -0.148953D-02  0.496888D-02  0.129941D-02
      7  0.267714D-03 -0.148957D-02  0.268091D-03  0.496882D-02  0.129940D-02
      8  0.338942D-02  0.338854D-02 -0.134417D-02 -0.264275D-01  0.605209D-04
      9  0.338850D-02 -0.134422D-02  0.338950D-02 -0.264275D-01  0.607967D-04
     10  0.167991D-02 -0.367427D-02 -0.367384D-02  0.275676D-01  0.247132D-02
     11 -0.134423D-02  0.338944D-02  0.338860D-02 -0.264275D-01  0.948742D-03
     12 -0.367376D-02  0.167987D-02 -0.367425D-02  0.275676D-01 -0.179421D-02
     13 -0.367425D-02 -0.367378D-02  0.167974D-02  0.275677D-01 -0.179333D-02
     14  0.765837D-03  0.583762D-04  0.577575D-04  0.143480D-01 -0.432160D-02
     15  0.583253D-04  0.577234D-04  0.765846D-03  0.143481D-01 -0.394670D-02
     16  0.577109D-04  0.765830D-03  0.584417D-04  0.143480D-01 -0.394610D-02
     17 -0.420103D-03 -0.108084D-03 -0.419939D-03 -0.154248D-01  0.651258D-02
     18 -0.419885D-03 -0.420122D-03 -0.108125D-03 -0.154248D-01  0.651737D-02
     19 -0.108066D-03 -0.419908D-03 -0.420175D-03 -0.154248D-01  0.101088D-03
     20  0.000000D+00 -0.289218D-02  0.289237D-02  0.000000D+00  0.338551D-05
     21  0.285431D-04 -0.295044D-02  0.292141D-02  0.000000D+00  0.264115D-02
     22 -0.297353D-04 -0.292140D-02  0.295061D-02  0.000000D+00 -0.264090D-02
     23  0.292143D-02  0.285440D-04 -0.295042D-02  0.000000D+00  0.465733D-03
     24  0.295064D-02 -0.297134D-04 -0.292139D-02  0.000000D+00  0.310349D-02
     25  0.289236D-02  0.000000D+00 -0.289218D-02  0.000000D+00 -0.217855D-02
     26 -0.292139D-02  0.295064D-02 -0.296865D-04  0.000000D+00 -0.459798D-03
     27 -0.289218D-02  0.289238D-02  0.000000D+00  0.000000D+00  0.217796D-02
     28 -0.295045D-02  0.292143D-02  0.285550D-04  0.000000D+00 -0.310408D-02
                6             7             8             9            10 
      6  0.434648D+00
      7  0.129940D-02  0.434648D+00
      8  0.948690D-03  0.607529D-04  0.520121D-01
      9  0.604387D-04  0.948732D-03  0.119917D-01  0.520121D-01
     10 -0.179420D-02 -0.179328D-02 -0.453394D-01 -0.453373D-01  0.132274D+00
     11  0.606864D-04  0.604957D-04  0.119916D-01  0.119916D-01  0.114027D-01
     12 -0.179327D-02  0.247139D-02 -0.453373D-01  0.114027D-01 -0.247898D-01
     13  0.247150D-02 -0.179424D-02  0.114027D-01 -0.453394D-01 -0.247899D-01
     14 -0.394622D-02 -0.394674D-02 -0.408664D-02 -0.408682D-02  0.169559D-01
     15 -0.432163D-02 -0.394616D-02  0.325925D-02 -0.408665D-02 -0.591462D-02
     16 -0.394678D-02 -0.432157D-02 -0.408682D-02  0.325925D-02 -0.591514D-02
     17  0.651745D-02  0.101109D-03  0.801730D-03  0.367965D-02 -0.481372D-02
     18  0.101156D-03  0.651261D-02  0.367964D-02  0.801611D-03 -0.481348D-02
     19  0.651267D-02  0.651740D-02  0.801628D-03  0.801756D-03  0.411632D-02
     20 -0.217856D-02  0.217798D-02 -0.558786D-02  0.558684D-02  0.110302D-05
     21  0.465724D-03 -0.310411D-02 -0.513256D-02  0.467649D-02  0.143114D-02
     22  0.310353D-02 -0.459814D-03 -0.467750D-02  0.513182D-02 -0.142888D-02
     23 -0.310411D-02  0.264118D-02  0.467650D-02  0.455301D-03  0.742111D-02
     24 -0.459826D-03 -0.264091D-02  0.513180D-02 -0.455057D-03  0.885115D-02
     25  0.217798D-02  0.338310D-05  0.558686D-02  0.000000D+00  0.599113D-02
     26 -0.264092D-02  0.310352D-02 -0.455065D-03 -0.467753D-02 -0.742146D-02
     27  0.336408D-05 -0.217857D-02  0.000000D+00 -0.558788D-02 -0.599142D-02
     28  0.264117D-02  0.465719D-03  0.455293D-03 -0.513256D-02 -0.885144D-02
               11            12            13            14            15 
     11  0.520121D-01
     12 -0.453394D-01  0.132274D+00
     13 -0.453372D-01 -0.247900D-01  0.132274D+00
     14  0.325923D-02 -0.591461D-02 -0.591510D-02  0.994480D-01
     15 -0.408683D-02 -0.591517D-02  0.169560D-01 -0.187084D-01  0.994482D-01
     16 -0.408668D-02  0.169560D-01 -0.591457D-02 -0.187084D-01 -0.187085D-01
     17  0.801643D-03  0.411635D-02 -0.481357D-02 -0.402148D-01 -0.402147D-01
     18  0.801751D-03 -0.481375D-02  0.411632D-02 -0.402146D-01  0.137430D-01
     19  0.367969D-02 -0.481349D-02 -0.481382D-02  0.137430D-01 -0.402148D-01
     20  0.000000D+00 -0.599149D-02  0.599119D-02  0.000000D+00 -0.261436D-02
     21  0.455297D-03 -0.885148D-02  0.742115D-02  0.406151D-02  0.144754D-02
     22 -0.455040D-03 -0.742151D-02  0.885115D-02 -0.406199D-02  0.550924D-02
     23 -0.513256D-02  0.143118D-02 -0.885149D-02  0.144752D-02 -0.550920D-02
     24 -0.467751D-02 -0.142882D-02 -0.742153D-02  0.550917D-02 -0.144731D-02
     25 -0.558785D-02  0.114845D-05 -0.599152D-02 -0.261433D-02  0.261439D-02
     26  0.513178D-02  0.885113D-02 -0.142883D-02 -0.144729D-02 -0.406204D-02
     27  0.558683D-02  0.599113D-02  0.113059D-05  0.261435D-02  0.000000D+00
     28  0.467649D-02  0.742110D-02  0.143114D-02 -0.550915D-02  0.406155D-02
               16            17            18            19            20 
     16  0.994481D-01
     17  0.137430D-01  0.532506D-01
     18 -0.402148D-01  0.922018D-02  0.532506D-01
     19 -0.402146D-01  0.922017D-02  0.922017D-02  0.532506D-01
     20  0.261438D-02 -0.694970D-02  0.694974D-02  0.000000D+00  0.141000D-01
     21 -0.550916D-02  0.582723D-02  0.561337D-03 -0.638845D-02  0.344390D-02
     22 -0.144729D-02 -0.561210D-03 -0.582720D-02  0.638846D-02  0.344401D-02
     23  0.406153D-02 -0.638842D-02  0.582723D-02  0.561343D-03  0.394326D-02
     24 -0.406201D-02  0.638850D-02 -0.561170D-03 -0.582718D-02 -0.671280D-02
     25  0.000000D+00  0.000000D+00 -0.694971D-02  0.694973D-02 -0.671268D-02
     26  0.550918D-02 -0.582717D-02  0.638849D-02 -0.561153D-03  0.394338D-02
     27 -0.261436D-02  0.694976D-02  0.000000D+00 -0.694968D-02 -0.671267D-02
     28  0.144751D-02  0.561316D-03 -0.638845D-02  0.582723D-02 -0.671256D-02
               21            22            23            24            25 
     21  0.146527D-01
     22  0.372042D-02  0.146530D-01
     23 -0.698907D-02 -0.726559D-02  0.146527D-01
     24  0.421977D-02 -0.698919D-02  0.372042D-02  0.146530D-01
     25 -0.671256D-02  0.394337D-02  0.344390D-02  0.344402D-02  0.140999D-01
     26 -0.726558D-02 -0.698918D-02  0.421978D-02 -0.698918D-02 -0.671278D-02
     27  0.394326D-02 -0.671278D-02 -0.671255D-02  0.394339D-02 -0.671266D-02
     28 -0.698907D-02  0.421978D-02 -0.698907D-02 -0.726558D-02  0.394327D-02
               26            27            28 
     26  0.146530D-01
     27  0.344399D-02  0.140999D-01
     28  0.372039D-02  0.344388D-02  0.146527D-01
 Leave Link  716 at Thu Feb 26 00:49:36 2015, MaxMem= 1073741824 cpu:       0.1
 (Enter /apps/gaussian/g09_c01/g09/l9999.exe)
 1\1\GINC-CX1-1-9-2\Freq\RPBE1PBE\Aug-CC-pVDZ\C1H6N1(1+)\JMF02\26-Feb-2
 015\0\\#p opt(VeryTight,CalcAll,Raman) Integral(Grid=UltraFine) PBE1PB
 E/AUG-cc-pVDZ\\Autjob by noodles.sh | Great noodly basis sets\\1,1\C,-
 0.0000000526,0.0000000526,-0.7927541289\H,-0.0961438966,-1.0332354509,
 -1.1375496654\H,-0.8467363248,0.5998808157,-1.1375496654\H,0.942880063
 5,0.4333547931,-1.1375496654\N,-0.0000000526,0.0000000526,0.7052786088
 \H,0.0882701761,0.9485438048,1.0823411612\H,-0.8655981529,-0.397827563
 ,1.0823411612\H,0.777327819,-0.5507160839,1.0823411612\\Version=EM64L-
 G09RevC.01\State=1-A\HF=-96.1087397\RMSD=2.003e-09\RMSF=6.399e-08\Zero
 Point=0.0794532\Thermal=0.0829002\Dipole=0.,0.,0.8631876\DipoleDeriv=0
 .0830791,0.0000034,0.0000015,0.0000021,0.083077,0.0000021,-0.0000024,-
 0.0000015,0.5168776,0.1216619,-0.0078424,0.0008141,-0.0078403,0.038134
 5,0.0087307,0.0033582,0.0360636,0.055218,0.0658072,0.0400886,0.007154,
 0.0400891,0.0939913,-0.0050699,0.029553,-0.0209397,0.0552186,0.0522269
 ,-0.0322495,-0.0079695,-0.0322481,0.107572,-0.0036621,-0.0329097,-0.01
 51236,0.0552192,-0.1450371,0.0000016,0.0000027,0.0000017,-0.1450397,0.
 0000024,-0.0000039,0.000002,-0.3583668,0.2469169,0.0051,0.0040438,0.00
 51002,0.3012558,0.0434399,0.0031107,0.0334212,0.2252762,0.2920885,0.02
 09789,-0.0396428,0.020979,0.2560853,-0.0182189,-0.0304976,-0.0140166,0
 .2252769,0.2832544,-0.0260799,0.0355983,-0.0260802,0.2649193,-0.025222
 ,0.0273885,-0.0194052,0.225277\Polar=19.2895736,-0.0000082,19.2895604,
 0.0000204,-0.0000055,22.220312\PolarDeriv=-0.893984,-3.1290825,0.89404
 61,2.2351981,0.0000041,0.0000053,-3.1293111,0.8940834,3.1293412,0.0000
 784,2.2351628,0.0000573,2.4623408,-0.0000755,2.4624256,0.0000946,-0.00
 01663,-3.1002194,-0.2059882,-0.6235836,-0.4575842,-0.8200893,-0.110779
 7,-0.2216851,-1.0346255,-0.4186512,-6.0927152,-0.1107667,-2.0005207,-2
 .3817045,-0.7872503,-0.0815218,-1.6565212,-0.1379065,-1.481607,-1.5084
 737,-3.9401065,1.8677375,-1.9006016,-1.6095525,0.5666543,-1.9516687,2.
 1069089,-1.5640719,2.0312208,0.5665211,-1.2113065,1.3827104,-1.3685721
 ,0.4171509,-1.075159,-1.2142061,0.8603167,-1.5086274,4.9626694,1.61401
 74,1.5416826,-1.801491,-0.4558046,2.1733829,1.7860316,1.1661316,1.2032
 001,-0.4558588,-1.0192936,0.9988421,-1.5097492,-0.3355559,-0.9339233,1
 .3520541,0.6214168,-1.5085692,0.616458,2.1566176,-0.6164593,-2.2321749
 ,0.0000059,-0.0000478,2.1566692,-0.6165093,-2.1566044,-0.0001113,-2.23
 21589,0.0000654,-1.8766992,-0.0000681,-1.8766166,-0.0000399,0.0000951,
 1.7938374,0.1926575,0.6286409,0.3179541,0.7623086,0.1214833,0.2290293,
 0.8580841,0.2966865,4.6296083,0.1215321,2.0563448,2.4610131,0.5767251,
 0.084496,1.4764623,0.1410716,1.5161273,1.9439609,-3.8308445,-1.1558528
 ,-1.1769336,1.838073,0.4995548,-2.2457689,-1.2521622,-0.9676602,-1.049
 5298,0.4995967,0.9806378,-1.0321812,1.3246541,0.3473319,0.7285345,-1.3
 835349,-0.6359198,1.9440048,3.0992022,-1.3585609,1.3979036,1.6276872,-
 0.6210903,2.0167517,-1.4916851,1.2099425,-1.6943468,-0.6210252,1.19111
 58,-1.4288163,1.1784646,-0.4317799,0.8747768,1.2424957,-0.8802722,1.94
 40576\HyperPolar=0.4602323,1.618478,-0.4624576,-1.6137823,-2.9811291,0
 .0014402,-2.9801805,-0.0013546,0.0018954,7.1331284\PG=C03 [C3(C1N1),X(
 H6)]\NImag=0\\0.63540426,0.00000018,0.63540334,-0.00000005,0.00000027,
 0.43391056,-0.05073085,-0.02481414,-0.00813468,0.04702475,-0.02481400,
 -0.31512248,-0.08740005,0.02623076,0.32650713,-0.00662379,-0.07116415,
 -0.07175754,0.00826575,0.08881051,0.08760648,-0.22753496,0.12689194,-0
 .07162330,0.00398968,-0.00399026,0.00245834,0.23392003,0.12689198,-0.1
 3831841,0.05074488,0.02228460,-0.01170869,0.00963197,-0.13413480,0.139
 61185,-0.05831791,0.04131844,-0.07175758,0.00891067,-0.00440669,0.0046
 1608,0.07277928,-0.05156360,0.08760648,-0.27051433,-0.10207797,0.07975
 787,0.00013758,0.00176625,-0.00063903,-0.01570578,-0.01091342,0.007112
 36,0.27935304,-0.10207792,-0.09533894,0.03665498,-0.02450861,-0.007856
 59,0.00992022,0.01536144,0.00798677,-0.00694497,0.10790404,0.09417885,
 0.06494165,0.02984550,-0.07175736,-0.00957070,-0.00268700,0.00461608,-
 0.00827165,-0.00551352,0.00461608,-0.08104503,-0.03724691,0.08760648,-
 0.09584550,0.,0.00000045,-0.00111250,0.00070727,-0.00345343,0.00392745
 ,-0.00361724,-0.03041518,0.00515275,0.00290979,0.03386842,0.73274475,-
 0.00000013,-0.09584525,0.00000048,0.00070752,0.00642415,-0.03711426,-0
 .00361712,0.00138434,0.02154780,0.00290988,0.00015902,0.01556633,-0.00
 000009,0.73274520,0.00000003,0.00000020,-0.18206685,0.00044534,0.00478
 659,-0.02058886,0.00392268,-0.00277901,-0.02058874,-0.00436810,-0.0020
 0776,-0.02058871,0.00000039,0.00000046,0.54298423,-0.00015838,0.000606
 79,-0.00017587,0.00043600,0.00005756,0.00018107,-0.00022430,-0.0005686
 5,-0.00076936,-0.00008910,0.00071786,0.00088103,-0.06339729,-0.0284456
 8,-0.01062071,0.05896130,0.00060678,0.00630606,-0.00189205,0.00005751,
 0.00104885,0.00194520,-0.00000201,0.00070574,0.00067716,0.00015119,0.0
 0057058,0.00052349,-0.02844557,-0.36651440,-0.11415977,0.03059329,0.38
 495500,-0.00313336,-0.03367497,-0.01219066,0.00020187,0.00216984,-0.00
 667319,-0.00075711,0.00003741,0.00109017,0.00075087,-0.00010268,0.0010
 9076,-0.01116852,-0.12005001,-0.09971720,0.01150508,0.12366985,0.10607
 129,0.00521548,0.00249575,0.00172639,0.00022613,0.00026206,-0.00020176
 ,0.00078197,0.00035173,-0.00089387,0.00094547,0.00023663,-0.00177513,-
 0.31536973,-0.11703065,0.10417544,-0.00032840,0.00091017,-0.00055349,0
 .32995114,0.00249580,0.00093223,0.00079360,0.00082871,0.00025531,-0.00
 100486,-0.00021495,-0.00030049,0.00050125,0.00023659,0.00053938,-0.000
 81579,-0.11703061,-0.11454188,0.04788196,-0.03118909,-0.01097162,0.014
 14808,0.12586276,0.11396516,0.03073017,0.01412394,-0.01219048,0.000346
 16,-0.00067438,0.00109017,-0.00028651,0.00070162,0.00109076,-0.0019800
 7,-0.00091009,-0.00667319,0.10955024,0.05035257,-0.09971707,-0.0135305
 8,-0.00416927,0.00516442,-0.11285377,-0.05187123,0.10607129,0.00416444
 ,-0.00310256,-0.00155061,0.00002935,-0.00021958,0.00001284,0.00084581,
 -0.00029412,0.00159406,0.00072033,-0.00054338,0.00097111,-0.26610033,0
 .14547627,-0.09355488,0.00480034,-0.00387125,0.00315460,-0.02142197,0.
 01901071,-0.01197585,0.27696201,-0.00310257,0.00198327,0.00109826,-0.0
 0078625,0.00045213,-0.00102474,-0.00029416,0.00063904,-0.00112941,0.00
 002327,-0.00023889,0.00032771,0.14547629,-0.16381124,0.06627766,0.0282
 2800,-0.01610036,0.01380247,-0.01308855,0.01012195,-0.00755337,-0.1564
 5605,0.16695429,-0.02759676,0.01955100,-0.01219053,-0.00046436,-0.0005
 9893,0.00109076,0.00177820,-0.00125974,-0.00667319,0.00041095,0.000636
 97,0.00109017,-0.09838195,0.06969711,-0.09971721,0.01252934,-0.0065947
 0,0.00516442,0.01037599,-0.00963319,0.00516442,0.10134869,-0.07179862,
 0.10607129\\0.,0.,-0.00000002,-0.00000013,0.00000002,0.,0.00000008,0.0
 0000011,0.,0.00000005,-0.00000012,0.,0.,0.,0.,0.00000012,0.,0.,-0.0000
 0005,0.00000011,0.,-0.00000007,-0.00000010,0.\\\@


 EVERYTHING'S GOT A MORAL, IF ONLY YOU CAN FIND IT.

                                    -- LEWIS CARROL, ALICE IN WONDERLAND
 Job cpu time:  0 days  0 hours 14 minutes 40.5 seconds.
 File lengths (MBytes):  RWF=     12 Int=      0 D2E=      0 Chk=      2 Scr=      1
 Normal termination of Gaussian 09 at Thu Feb 26 00:49:36 2015.
