 Entering Gaussian System, Link 0=g03
 Input=MA_PBEPBE_AUG-cc-pVDZ.com
 Output=MA_PBEPBE_AUG-cc-pVDZ.log
 Initial command:
 /apps/gaussian/g09_c01/g09/l1.exe /tmp/pbs.8910304.cx1b/Gau-18662.inp -scrdir=/tmp/pbs.8910304.cx1b/
 Entering Link 1 = /apps/gaussian/g09_c01/g09/l1.exe PID=     18664.
  
 Copyright (c) 1988,1990,1992,1993,1995,1998,2003,2009,2011,
            Gaussian, Inc.  All Rights Reserved.
  
 This is part of the Gaussian(R) 09 program.  It is based on
 the Gaussian(R) 03 system (copyright 2003, Gaussian, Inc.),
 the Gaussian(R) 98 system (copyright 1998, Gaussian, Inc.),
 the Gaussian(R) 94 system (copyright 1995, Gaussian, Inc.),
 the Gaussian 92(TM) system (copyright 1992, Gaussian, Inc.),
 the Gaussian 90(TM) system (copyright 1990, Gaussian, Inc.),
 the Gaussian 88(TM) system (copyright 1988, Gaussian, Inc.),
 the Gaussian 86(TM) system (copyright 1986, Carnegie Mellon
 University), and the Gaussian 82(TM) system (copyright 1983,
 Carnegie Mellon University). Gaussian is a federally registered
 trademark of Gaussian, Inc.
  
 This software contains proprietary and confidential information,
 including trade secrets, belonging to Gaussian, Inc.
  
 This software is provided under written license and may be
 used, copied, transmitted, or stored only in accord with that
 written license.
  
 The following legend is applicable only to US Government
 contracts under FAR:
  
                    RESTRICTED RIGHTS LEGEND
  
 Use, reproduction and disclosure by the US Government is
 subject to restrictions as set forth in subparagraphs (a)
 and (c) of the Commercial Computer Software - Restricted
 Rights clause in FAR 52.227-19.
  
 Gaussian, Inc.
 340 Quinnipiac St., Bldg. 40, Wallingford CT 06492
  
  
 ---------------------------------------------------------------
 Warning -- This program may not be used in any manner that
 competes with the business of Gaussian, Inc. or will provide
 assistance to any competitor of Gaussian, Inc.  The licensee
 of this program is prohibited from giving any competitor of
 Gaussian, Inc. access to this program.  By using this program,
 the user acknowledges that Gaussian, Inc. is engaged in the
 business of creating and licensing software in the field of
 computational chemistry and represents and warrants to the
 licensee that it is not a competitor of Gaussian, Inc. and that
 it will not use this program in any manner prohibited above.
 ---------------------------------------------------------------
  

 Cite this work as:
 Gaussian 09, Revision C.01,
 M. J. Frisch, G. W. Trucks, H. B. Schlegel, G. E. Scuseria, 
 M. A. Robb, J. R. Cheeseman, G. Scalmani, V. Barone, B. Mennucci, 
 G. A. Petersson, H. Nakatsuji, M. Caricato, X. Li, H. P. Hratchian, 
 A. F. Izmaylov, J. Bloino, G. Zheng, J. L. Sonnenberg, M. Hada, 
 M. Ehara, K. Toyota, R. Fukuda, J. Hasegawa, M. Ishida, T. Nakajima, 
 Y. Honda, O. Kitao, H. Nakai, T. Vreven, J. A. Montgomery, Jr., 
 J. E. Peralta, F. Ogliaro, M. Bearpark, J. J. Heyd, E. Brothers, 
 K. N. Kudin, V. N. Staroverov, T. Keith, R. Kobayashi, J. Normand, 
 K. Raghavachari, A. Rendell, J. C. Burant, S. S. Iyengar, J. Tomasi, 
 M. Cossi, N. Rega, J. M. Millam, M. Klene, J. E. Knox, J. B. Cross, 
 V. Bakken, C. Adamo, J. Jaramillo, R. Gomperts, R. E. Stratmann, 
 O. Yazyev, A. J. Austin, R. Cammi, C. Pomelli, J. W. Ochterski, 
 R. L. Martin, K. Morokuma, V. G. Zakrzewski, G. A. Voth, 
 P. Salvador, J. J. Dannenberg, S. Dapprich, A. D. Daniels, 
 O. Farkas, J. B. Foresman, J. V. Ortiz, J. Cioslowski, 
 and D. J. Fox, Gaussian, Inc., Wallingford CT, 2010.
 
 ******************************************
 Gaussian 09:  EM64L-G09RevC.01 23-Sep-2011
                26-Feb-2015 
 ******************************************
 %Chk=MA_PBEPBE_AUG-cc-pVDZ.chk
 %Mem=8Gb
 %nproc=8
 Will use up to    8 processors via shared memory.
 ----------------------------------------------------------------------
 #p opt(VeryTight,CalcAll,Raman) Integral(Grid=UltraFine) PBEPBE/AUG-cc
 -pVDZ
 ----------------------------------------------------------------------
 1/7=1,10=4,14=-1,18=20,19=15,26=3,38=1/1,3;
 2/9=110,12=2,17=6,18=5,40=1/2;
 3/5=16,7=10,11=2,16=1,25=1,30=1,71=2,74=1009,75=-5/1,2,3;
 4//1;
 5/5=2,38=5/2;
 8/6=4,10=90,11=11/1;
 10/13=10,15=4/2;
 11/6=3,8=1,9=11,15=111,16=1/1,2,10;
 10/6=1/2;
 6/7=2,8=2,9=2,10=2,18=1,28=1/1;
 7/10=1,25=1/1,2,3,16;
 1/7=1,10=4,14=-1,18=20,19=15/3(3);
 2/9=110/2;
 7/8=1,9=1,25=1,44=-1/16;
 99//99;
 2/9=110/2;
 3/5=16,7=10,11=2,16=1,25=1,30=1,71=2,74=1009,75=-5/1,2,3;
 4/5=5,16=3/1;
 5/5=2,38=5/2;
 8/6=4,10=90,11=11/1;
 10/13=10,15=4/2;
 11/6=3,8=1,9=11,15=111,16=1/1,2,10;
 10/6=1/2;
 7/10=1,25=1/1,2,3,16;
 1/7=1,10=4,14=-1,18=20,19=15/3(-9);
 2/9=110/2;
 6/7=2,8=2,9=2,10=2,18=1,19=2,28=1/1;
 7/8=1,9=1,25=1,44=-1/16;
 99//99;
 Leave Link    1 at Thu Feb 26 00:55:23 2015, MaxMem= 1073741824 cpu:       0.3
 (Enter /apps/gaussian/g09_c01/g09/l101.exe)
 ----------------------------------------------
 Autjob by noodles.sh | Great noodly basis sets
 ----------------------------------------------
 Charge =  1 Multiplicity = 1
 Symbolic Z-Matrix:
 C                     0.        0.       -0.80446 
 H                    -0.09587  -1.03096  -1.1445 
 H                    -0.8449    0.59851  -1.1445 
 H                     0.94078   0.43245  -1.1445 
 N                     0.        0.        0.71256 
 H                     0.08865   0.95193   1.09076 
 H                    -0.86872  -0.39919   1.09076 
 H                     0.78007  -0.55274   1.09076 
 
 NAtoms=      8 NQM=        0 NQMF=       0 NMMI=      8 NMMIF=      0
                NMic=       0 NMicF=      0.
                    Isotopes and Nuclear Properties:
 (Nuclear quadrupole moments (NQMom) in fm**2, nuclear magnetic moments (NMagM)
  in nuclear magnetons)

  Atom         1           2           3           4           5           6           7           8
 IAtWgt=          12           1           1           1          14           1           1           1
 AtmWgt=  12.0000000   1.0078250   1.0078250   1.0078250  14.0030740   1.0078250   1.0078250   1.0078250
 NucSpn=           0           1           1           1           2           1           1           1
 AtZEff=   0.0000000   0.0000000   0.0000000   0.0000000   0.0000000   0.0000000   0.0000000   0.0000000
 NQMom=    0.0000000   0.0000000   0.0000000   0.0000000   2.0440000   0.0000000   0.0000000   0.0000000
 NMagM=    0.0000000   2.7928460   2.7928460   2.7928460   0.4037610   2.7928460   2.7928460   2.7928460
 Leave Link  101 at Thu Feb 26 00:55:23 2015, MaxMem= 1073741824 cpu:       0.9
 (Enter /apps/gaussian/g09_c01/g09/l103.exe)

 GradGradGradGradGradGradGradGradGradGradGradGradGradGradGradGradGradGrad
 Berny optimization.
 Initialization pass.
                           ----------------------------
                           !    Initial Parameters    !
                           ! (Angstroms and Degrees)  !
 --------------------------                            --------------------------
 ! Name  Definition              Value          Derivative Info.                !
 --------------------------------------------------------------------------------
 ! R1    R(1,2)                  1.0898         calculate D2E/DX2 analytically  !
 ! R2    R(1,3)                  1.0898         calculate D2E/DX2 analytically  !
 ! R3    R(1,4)                  1.0898         calculate D2E/DX2 analytically  !
 ! R4    R(1,5)                  1.517          calculate D2E/DX2 analytically  !
 ! R5    R(5,6)                  1.0281         calculate D2E/DX2 analytically  !
 ! R6    R(5,7)                  1.0281         calculate D2E/DX2 analytically  !
 ! R7    R(5,8)                  1.0281         calculate D2E/DX2 analytically  !
 ! A1    A(2,1,3)              110.7303         calculate D2E/DX2 analytically  !
 ! A2    A(2,1,4)              110.7304         calculate D2E/DX2 analytically  !
 ! A3    A(2,1,5)              108.1807         calculate D2E/DX2 analytically  !
 ! A4    A(3,1,4)              110.7303         calculate D2E/DX2 analytically  !
 ! A5    A(3,1,5)              108.1807         calculate D2E/DX2 analytically  !
 ! A6    A(4,1,5)              108.1807         calculate D2E/DX2 analytically  !
 ! A7    A(1,5,6)              111.5829         calculate D2E/DX2 analytically  !
 ! A8    A(1,5,7)              111.583          calculate D2E/DX2 analytically  !
 ! A9    A(1,5,8)              111.583          calculate D2E/DX2 analytically  !
 ! A10   A(6,5,7)              107.2794         calculate D2E/DX2 analytically  !
 ! A11   A(6,5,8)              107.2794         calculate D2E/DX2 analytically  !
 ! A12   A(7,5,8)              107.2794         calculate D2E/DX2 analytically  !
 ! D1    D(2,1,5,6)            179.9926         calculate D2E/DX2 analytically  !
 ! D2    D(2,1,5,7)            -60.0075         calculate D2E/DX2 analytically  !
 ! D3    D(2,1,5,8)             59.9926         calculate D2E/DX2 analytically  !
 ! D4    D(3,1,5,6)            -60.0075         calculate D2E/DX2 analytically  !
 ! D5    D(3,1,5,7)             59.9925         calculate D2E/DX2 analytically  !
 ! D6    D(3,1,5,8)            179.9926         calculate D2E/DX2 analytically  !
 ! D7    D(4,1,5,6)             59.9925         calculate D2E/DX2 analytically  !
 ! D8    D(4,1,5,7)            179.9925         calculate D2E/DX2 analytically  !
 ! D9    D(4,1,5,8)            -60.0075         calculate D2E/DX2 analytically  !
 --------------------------------------------------------------------------------
 Trust Radius=3.00D-01 FncErr=1.00D-07 GrdErr=1.00D-06
 Number of steps in this run=     38 maximum allowed number of steps=    100.
 GradGradGradGradGradGradGradGradGradGradGradGradGradGradGradGradGradGrad

 Leave Link  103 at Thu Feb 26 00:55:23 2015, MaxMem= 1073741824 cpu:       0.1
 (Enter /apps/gaussian/g09_c01/g09/l202.exe)
                          Input orientation:                          
 ---------------------------------------------------------------------
 Center     Atomic      Atomic             Coordinates (Angstroms)
 Number     Number       Type             X           Y           Z
 ---------------------------------------------------------------------
      1          6           0        0.000000    0.000000   -0.804455
      2          1           0       -0.095874   -1.030964   -1.144495
      3          1           0       -0.844904    0.598511   -1.144495
      4          1           0        0.940777    0.432453   -1.144495
      5          7           0        0.000000    0.000000    0.712562
      6          1           0        0.088649    0.951929    1.090759
      7          1           0       -0.868719   -0.399192    1.090759
      8          1           0        0.780070   -0.552736    1.090759
 ---------------------------------------------------------------------
                    Distance matrix (angstroms):
                    1          2          3          4          5
     1  C    0.000000
     2  H    1.089819   0.000000
     3  H    1.089819   1.793386   0.000000
     4  H    1.089818   1.793386   1.793386   0.000000
     5  N    1.517017   2.126203   2.126203   2.126203   0.000000
     6  H    2.122702   2.993706   2.448017   2.447925   1.028134
     7  H    2.122702   2.448017   2.447925   2.993705   1.028134
     8  H    2.122702   2.447926   2.993705   2.448016   1.028134
                    6          7          8
     6  H    0.000000
     7  H    1.655923   0.000000
     8  H    1.655923   1.655923   0.000000
 Stoichiometry    CH6N(1+)
 Framework group  C3[C3(CN),X(H6)]
 Deg. of freedom     6
 Full point group                 C3      NOp   3
 Largest Abelian subgroup         C1      NOp   1
 Largest concise Abelian subgroup C1      NOp   1
                         Standard orientation:                         
 ---------------------------------------------------------------------
 Center     Atomic      Atomic             Coordinates (Angstroms)
 Number     Number       Type             X           Y           Z
 ---------------------------------------------------------------------
      1          6           0        0.000000    0.000000   -0.804455
      2          1           0        1.030964   -0.095874   -1.144495
      3          1           0       -0.598511   -0.844904   -1.144495
      4          1           0       -0.432453    0.940778   -1.144495
      5          7           0        0.000000    0.000000    0.712562
      6          1           0       -0.951929    0.088649    1.090759
      7          1           0        0.399192   -0.868719    1.090759
      8          1           0        0.552737    0.780070    1.090759
 ---------------------------------------------------------------------
 Rotational constants (GHZ):     84.1605103     19.8694623     19.8694623
 Leave Link  202 at Thu Feb 26 00:55:23 2015, MaxMem= 1073741824 cpu:       0.0
 (Enter /apps/gaussian/g09_c01/g09/l301.exe)
 Standard basis: Aug-CC-pVDZ (5D, 7F)
 Ernie: Thresh=  0.10000D-02 Tol=  0.10000D-05 Strict=F.
 Ernie:  4 primitive shells out of 92 were deleted.
 There are   100 symmetry adapted basis functions of A   symmetry.
 Integral buffers will be    131072 words long.
 Raffenetti 2 integral format.
 Two-electron integral symmetry is turned on.
   100 basis functions,   152 primitive gaussians,   104 cartesian basis functions
     9 alpha electrons        9 beta electrons
       nuclear repulsion energy        47.5846100594 Hartrees.
 IExCor= 1009 DFT=T Ex=PBE Corr=PBE ExCW=0 ScaHFX=  0.000000
 ScaDFX=  1.000000  1.000000  1.000000  1.000000 ScalE2=  1.000000  1.000000
 IRadAn=      5 IRanWt=     -1 IRanGd=            0 ICorTp=0
 NAtoms=    8 NActive=    8 NUniq=    4 SFac= 4.00D+00 NAtFMM=   60 NAOKFM=F Big=F
 Leave Link  301 at Thu Feb 26 00:55:23 2015, MaxMem= 1073741824 cpu:       0.3
 (Enter /apps/gaussian/g09_c01/g09/l302.exe)
 NPDir=0 NMtPBC=     1 NCelOv=     1 NCel=       1 NClECP=     1 NCelD=      1
         NCelK=      1 NCelE2=     1 NClLst=     1 CellRange=     0.0.
 One-electron integrals computed using PRISM.
 NBasis=   100 RedAO= T  NBF=   100
 NBsUse=   100 1.00D-06 NBFU=   100
 Precomputing XC quadrature grid using
 IXCGrd= 2 IRadAn=           5 IRanWt=          -1 IRanGd=           0 AccXCQ= 0.00D+00.
 NRdTot=     685 NPtTot=      183098 NUsed=      188010 NTot=      188042
 NSgBfM=   104   104   104   104   104 NAtAll=     8     8.
 Leave Link  302 at Thu Feb 26 00:55:23 2015, MaxMem= 1073741824 cpu:       1.1
 (Enter /apps/gaussian/g09_c01/g09/l303.exe)
 DipDrv:  MaxL=1.
 Leave Link  303 at Thu Feb 26 00:55:23 2015, MaxMem= 1073741824 cpu:       0.1
 (Enter /apps/gaussian/g09_c01/g09/l401.exe)
 Harris functional with IExCor= 1009 diagonalized for initial guess.
 ExpMin= 2.97D-02 ExpMax= 9.05D+03 ExpMxC= 3.09D+02 IAcc=3 IRadAn=         5 AccDes= 0.00D+00
 HarFok:  IExCor= 1009 AccDes= 0.00D+00 IRadAn=         5 IDoV= 1
 ScaDFX=  1.000000  1.000000  1.000000  1.000000
 FoFCou: FMM=F IPFlag=           0 FMFlag=      100000 FMFlg1=           0
         NFxFlg=           0 DoJE=T BraDBF=F KetDBF=T FulRan=T
         Omega=  0.000000  0.000000  1.000000  0.000000  0.000000 ICntrl=     500 IOpCl=  0
         NMat0=    1 NMatS0=    1 NMatT0=    0 NMatD0=    1 NMtDS0=    0 NMtDT0=    0
         I1Cent=           4 NGrid=           0.
 Petite list used in FoFCou.
 Harris En= -96.1928057647449    
 Initial guess orbital symmetries:
       Occupied  (A) (A) (A) (A) (E) (E) (A) (E) (E)
       Virtual   (A) (A) (E) (E) (A) (E) (E) (A) (E) (E) (A) (E)
                 (E) (A) (E) (E) (E) (E) (A) (A) (E) (E) (E) (E)
                 (A) (A) (A) (E) (E) (A) (E) (E) (E) (E) (A) (E)
                 (E) (A) (A) (E) (E) (A) (E) (E) (E) (E) (A) (E)
                 (E) (A) (E) (E) (A) (A) (E) (E) (E) (E) (E) (E)
                 (A) (A) (A) (E) (E) (A) (A) (E) (E) (E) (E) (A)
                 (E) (E) (E) (E) (A) (E) (E) (E) (E) (A) (E) (E)
                 (A) (A) (E) (E) (A) (E) (E)
 The electronic state of the initial guess is 1-A.
 Leave Link  401 at Thu Feb 26 00:55:24 2015, MaxMem= 1073741824 cpu:       2.1
 (Enter /apps/gaussian/g09_c01/g09/l502.exe)
 Closed shell SCF:
 Requested convergence on RMS density matrix=1.00D-08 within 128 cycles.
 Requested convergence on MAX density matrix=1.00D-06.
 Requested convergence on             energy=1.00D-06.
 No special actions if energy rises.
 Using DIIS extrapolation, IDIIS=  1040.
 Integral symmetry usage will be decided dynamically.
       187925 words used for storage of precomputed grid.
 Keep J ints in memory in canonical form, NReq=16077209.
 IEnd=      240235 IEndB=      240235 NGot=  1073741824 MDV=  1058620592
 LenX=  1058620592 LenY=  1058609335
 Symmetry not used in FoFDir.
 MinBra= 0 MaxBra= 2 Meth= 1.
 IRaf=       0 NMat=   1 IRICut=       1 DoRegI=T DoRafI=F ISym2E= 0 JSym2E=0.

 Cycle   1  Pass 1  IDiag  1:
 E= -96.0616453970227    
 DIIS: error= 1.37D-02 at cycle   1 NSaved=   1.
 NSaved= 1 IEnMin= 1 EnMin= -96.0616453970227     IErMin= 1 ErrMin= 1.37D-02
 ErrMax= 1.37D-02 EMaxC= 1.00D-01 BMatC= 2.68D-02 BMatP= 2.68D-02
 IDIUse=3 WtCom= 8.63D-01 WtEn= 1.37D-01
 Coeff-Com:  0.100D+01
 Coeff-En:   0.100D+01
 Coeff:      0.100D+01
 Gap=     0.307 Goal=   None    Shift=    0.000
 DSYEVD returned Info=         201 IAlg= 4 N=   100 NDim=   100 NE2=    10586092 trying DSYEV.
 GapD=    0.307 DampG=1.000 DampE=0.500 DampFc=0.5000 IDamp=-1.
 Damping current iteration by 5.00D-01
 RMSDP=3.72D-03 MaxDP=7.76D-02              OVMax= 1.21D-01

 Cycle   2  Pass 1  IDiag  1:
 E= -96.0740319964929     Delta-E=       -0.012386599470 Rises=F Damp=T
 DIIS: error= 5.03D-03 at cycle   2 NSaved=   2.
 NSaved= 2 IEnMin= 2 EnMin= -96.0740319964929     IErMin= 2 ErrMin= 5.03D-03
 ErrMax= 5.03D-03 EMaxC= 1.00D-01 BMatC= 1.41D-03 BMatP= 2.68D-02
 IDIUse=3 WtCom= 9.50D-01 WtEn= 5.03D-02
 Coeff-Com:  0.102D+00 0.898D+00
 Coeff-En:   0.171D+00 0.829D+00
 Coeff:      0.105D+00 0.895D+00
 Gap=     0.342 Goal=   None    Shift=    0.000
 DSYEVD returned Info=         201 IAlg= 4 N=   100 NDim=   100 NE2=    10586092 trying DSYEV.
 RMSDP=1.30D-03 MaxDP=2.62D-02 DE=-1.24D-02 OVMax= 6.26D-02

 Cycle   3  Pass 1  IDiag  1:
 E= -96.0906367042579     Delta-E=       -0.016604707765 Rises=F Damp=F
 DIIS: error= 3.04D-03 at cycle   3 NSaved=   3.
 NSaved= 3 IEnMin= 3 EnMin= -96.0906367042579     IErMin= 3 ErrMin= 3.04D-03
 ErrMax= 3.04D-03 EMaxC= 1.00D-01 BMatC= 4.79D-04 BMatP= 1.41D-03
 IDIUse=3 WtCom= 9.70D-01 WtEn= 3.04D-02
 Coeff-Com:  0.210D-02 0.363D+00 0.635D+00
 Coeff-En:   0.000D+00 0.000D+00 0.100D+01
 Coeff:      0.203D-02 0.352D+00 0.646D+00
 Gap=     0.344 Goal=   None    Shift=    0.000
 DSYEVD returned Info=         201 IAlg= 4 N=   100 NDim=   100 NE2=    10586092 trying DSYEV.
 RMSDP=2.35D-04 MaxDP=5.29D-03 DE=-1.66D-02 OVMax= 8.21D-03

 Cycle   4  Pass 1  IDiag  1:
 E= -96.0911400173110     Delta-E=       -0.000503313053 Rises=F Damp=F
 DIIS: error= 3.49D-04 at cycle   4 NSaved=   4.
 NSaved= 4 IEnMin= 4 EnMin= -96.0911400173110     IErMin= 4 ErrMin= 3.49D-04
 ErrMax= 3.49D-04 EMaxC= 1.00D-01 BMatC= 7.19D-06 BMatP= 4.79D-04
 IDIUse=3 WtCom= 9.97D-01 WtEn= 3.49D-03
 Coeff-Com: -0.369D-02 0.499D-01 0.159D+00 0.794D+00
 Coeff-En:   0.000D+00 0.000D+00 0.000D+00 0.100D+01
 Coeff:     -0.368D-02 0.497D-01 0.159D+00 0.795D+00
 Gap=     0.344 Goal=   None    Shift=    0.000
 DSYEVD returned Info=         201 IAlg= 4 N=   100 NDim=   100 NE2=    10586092 trying DSYEV.
 RMSDP=2.74D-05 MaxDP=4.90D-04 DE=-5.03D-04 OVMax= 1.30D-03

 Cycle   5  Pass 1  IDiag  1:
 E= -96.0911458256964     Delta-E=       -0.000005808385 Rises=F Damp=F
 DIIS: error= 1.91D-04 at cycle   5 NSaved=   5.
 NSaved= 5 IEnMin= 5 EnMin= -96.0911458256964     IErMin= 5 ErrMin= 1.91D-04
 ErrMax= 1.91D-04 EMaxC= 1.00D-01 BMatC= 2.43D-06 BMatP= 7.19D-06
 IDIUse=3 WtCom= 9.98D-01 WtEn= 1.91D-03
 Coeff-Com: -0.275D-02 0.140D-01 0.715D-01 0.473D+00 0.444D+00
 Coeff-En:   0.000D+00 0.000D+00 0.000D+00 0.781D-01 0.922D+00
 Coeff:     -0.274D-02 0.140D-01 0.713D-01 0.472D+00 0.445D+00
 Gap=     0.344 Goal=   None    Shift=    0.000
 DSYEVD returned Info=         201 IAlg= 4 N=   100 NDim=   100 NE2=    10586092 trying DSYEV.
 RMSDP=1.14D-05 MaxDP=3.88D-04 DE=-5.81D-06 OVMax= 4.59D-04

 Cycle   6  Pass 1  IDiag  1:
 E= -96.0911477419717     Delta-E=       -0.000001916275 Rises=F Damp=F
 DIIS: error= 3.17D-05 at cycle   6 NSaved=   6.
 NSaved= 6 IEnMin= 6 EnMin= -96.0911477419717     IErMin= 6 ErrMin= 3.17D-05
 ErrMax= 3.17D-05 EMaxC= 1.00D-01 BMatC= 5.76D-08 BMatP= 2.43D-06
 IDIUse=1 WtCom= 1.00D+00 WtEn= 0.00D+00
 Coeff-Com: -0.523D-03 0.102D-02 0.113D-01 0.904D-01 0.178D+00 0.719D+00
 Coeff:     -0.523D-03 0.102D-02 0.113D-01 0.904D-01 0.178D+00 0.719D+00
 Gap=     0.344 Goal=   None    Shift=    0.000
 DSYEVD returned Info=         201 IAlg= 4 N=   100 NDim=   100 NE2=    10586092 trying DSYEV.
 RMSDP=2.34D-06 MaxDP=6.57D-05 DE=-1.92D-06 OVMax= 9.43D-05

 Cycle   7  Pass 1  IDiag  1:
 E= -96.0911477962356     Delta-E=       -0.000000054264 Rises=F Damp=F
 DIIS: error= 2.17D-06 at cycle   7 NSaved=   7.
 NSaved= 7 IEnMin= 7 EnMin= -96.0911477962356     IErMin= 7 ErrMin= 2.17D-06
 ErrMax= 2.17D-06 EMaxC= 1.00D-01 BMatC= 3.61D-10 BMatP= 5.76D-08
 IDIUse=1 WtCom= 1.00D+00 WtEn= 0.00D+00
 Coeff-Com: -0.639D-04 0.933D-04 0.207D-02 0.162D-01 0.381D-01 0.167D+00
 Coeff-Com:  0.776D+00
 Coeff:     -0.639D-04 0.933D-04 0.207D-02 0.162D-01 0.381D-01 0.167D+00
 Coeff:      0.776D+00
 Gap=     0.344 Goal=   None    Shift=    0.000
 DSYEVD returned Info=         201 IAlg= 4 N=   100 NDim=   100 NE2=    10586092 trying DSYEV.
 RMSDP=3.28D-07 MaxDP=8.19D-06 DE=-5.43D-08 OVMax= 8.10D-06

 Cycle   8  Pass 1  IDiag  1:
 E= -96.0911477966620     Delta-E=       -0.000000000426 Rises=F Damp=F
 DIIS: error= 2.41D-07 at cycle   8 NSaved=   8.
 NSaved= 8 IEnMin= 8 EnMin= -96.0911477966620     IErMin= 8 ErrMin= 2.41D-07
 ErrMax= 2.41D-07 EMaxC= 1.00D-01 BMatC= 9.82D-12 BMatP= 3.61D-10
 IDIUse=1 WtCom= 1.00D+00 WtEn= 0.00D+00
 Coeff-Com:  0.534D-05-0.129D-04 0.151D-03 0.968D-03 0.397D-02 0.166D-01
 Coeff-Com:  0.169D+00 0.809D+00
 Coeff:      0.534D-05-0.129D-04 0.151D-03 0.968D-03 0.397D-02 0.166D-01
 Coeff:      0.169D+00 0.809D+00
 Gap=     0.344 Goal=   None    Shift=    0.000
 DSYEVD returned Info=         201 IAlg= 4 N=   100 NDim=   100 NE2=    10586092 trying DSYEV.
 RMSDP=3.35D-08 MaxDP=5.33D-07 DE=-4.26D-10 OVMax= 9.35D-07

 Cycle   9  Pass 1  IDiag  1:
 E= -96.0911477966722     Delta-E=       -0.000000000010 Rises=F Damp=F
 DIIS: error= 9.95D-09 at cycle   9 NSaved=   9.
 NSaved= 9 IEnMin= 9 EnMin= -96.0911477966722     IErMin= 9 ErrMin= 9.95D-09
 ErrMax= 9.95D-09 EMaxC= 1.00D-01 BMatC= 1.02D-14 BMatP= 9.82D-12
 IDIUse=1 WtCom= 1.00D+00 WtEn= 0.00D+00
 Coeff-Com: -0.133D-06-0.248D-06-0.681D-05-0.517D-04-0.138D-03-0.457D-03
 Coeff-Com: -0.144D-02 0.728D-02 0.995D+00
 Coeff:     -0.133D-06-0.248D-06-0.681D-05-0.517D-04-0.138D-03-0.457D-03
 Coeff:     -0.144D-02 0.728D-02 0.995D+00
 Gap=     0.344 Goal=   None    Shift=    0.000
 DSYEVD returned Info=         201 IAlg= 4 N=   100 NDim=   100 NE2=    10586092 trying DSYEV.
 RMSDP=1.08D-09 MaxDP=1.94D-08 DE=-1.02D-11 OVMax= 2.56D-08

 SCF Done:  E(RPBE-PBE) =  -96.0911477967     A.U. after    9 cycles
             Convg  =    0.1078D-08             -V/T =  2.0070
 KE= 9.542394807739D+01 PE=-3.129693973978D+02 EE= 7.386969146434D+01
 Leave Link  502 at Thu Feb 26 00:55:26 2015, MaxMem= 1073741824 cpu:      15.8
 (Enter /apps/gaussian/g09_c01/g09/l801.exe)
 Range of M.O.s used for correlation:     1   100
 NBasis=   100 NAE=     9 NBE=     9 NFC=     0 NFV=     0
 NROrb=    100 NOA=     9 NOB=     9 NVA=    91 NVB=    91

 **** Warning!!: The largest alpha MO coefficient is  0.22847993D+02

 Leave Link  801 at Thu Feb 26 00:55:26 2015, MaxMem= 1073741824 cpu:       0.1
 (Enter /apps/gaussian/g09_c01/g09/l1002.exe)
 Minotr:  Closed shell wavefunction.
          Direct CPHF calculation.
          Differentiating once with respect to electric field.
                with respect to dipole field.
          Electric field/nuclear overlap derivatives assumed to be zero.
          Using symmetry in CPHF.
          Requested convergence is 1.0D-08 RMS, and 1.0D-07 maximum.
          Secondary convergence is 1.0D-12 RMS, and 1.0D-12 maximum.
          NewPWx=F KeepS1=T KeepF1=T KeepIn=T MapXYZ=F SortEE=F KeepMc=T.
          MDV=    1073741756 using IRadAn=       1.
 Generate precomputed XC quadrature information.
          Keep J ints in memory in canonical form, NReq=15731880.
 Symmetry not used in FoFDir.
 MinBra= 0 MaxBra= 2 Meth= 1.
 IRaf=       0 NMat=   1 IRICut=       1 DoRegI=T DoRafI=F ISym2E= 0 JSym2E=0.
          Solving linear equations simultaneously, MaxMat=       0.
          There are     3 degrees of freedom in the 1st order CPHF.  IDoFFX=0.
      3 vectors produced by pass  0 Test12= 2.73D-14 3.33D-08 XBig12= 1.46D+01 1.84D+00.
 AX will form     3 AO Fock derivatives at one time.
      3 vectors produced by pass  1 Test12= 2.73D-14 3.33D-08 XBig12= 1.33D+00 4.93D-01.
      3 vectors produced by pass  2 Test12= 2.73D-14 3.33D-08 XBig12= 4.47D-01 2.02D-01.
      3 vectors produced by pass  3 Test12= 2.73D-14 3.33D-08 XBig12= 3.33D-02 4.83D-02.
      3 vectors produced by pass  4 Test12= 2.73D-14 3.33D-08 XBig12= 9.89D-03 2.07D-02.
      3 vectors produced by pass  5 Test12= 2.73D-14 3.33D-08 XBig12= 5.57D-04 6.36D-03.
      3 vectors produced by pass  6 Test12= 2.73D-14 3.33D-08 XBig12= 1.28D-05 1.01D-03.
      3 vectors produced by pass  7 Test12= 2.73D-14 3.33D-08 XBig12= 1.55D-07 7.60D-05.
      1 vectors produced by pass  8 Test12= 2.73D-14 3.33D-08 XBig12= 5.91D-10 4.86D-06.
      1 vectors produced by pass  9 Test12= 2.73D-14 3.33D-08 XBig12= 7.37D-13 1.96D-07.
 Inverted reduced A of dimension    26 with in-core refinement.
 End of Minotr Frequency-dependent properties file   721 does not exist.
 End of Minotr Frequency-dependent properties file   722 does not exist.
 Leave Link 1002 at Thu Feb 26 00:55:30 2015, MaxMem= 1073741824 cpu:      31.6
 (Enter /apps/gaussian/g09_c01/g09/l1101.exe)
 Using compressed storage, NAtomX=     8.
 Will process   9 centers per pass.
 Leave Link 1101 at Thu Feb 26 00:55:30 2015, MaxMem= 1073741824 cpu:       1.0
 (Enter /apps/gaussian/g09_c01/g09/l1102.exe)
 Symmetrizing basis deriv contribution to polar:
 IMax=3 JMax=2 DiffMx= 0.00D+00
 Leave Link 1102 at Thu Feb 26 00:55:30 2015, MaxMem= 1073741824 cpu:       0.2
 (Enter /apps/gaussian/g09_c01/g09/l1110.exe)
 Forming Gx(P) for the SCF density, NAtomX=     8.
 Integral derivatives from FoFDir/FoFCou, PRISM(SPDF).
 Do as many integral derivatives as possible in FoFDir.
 G2DrvN: MDV=    1073741656.
 G2DrvN: will do     9 centers at a time, making    1 passes doing MaxLOS=2.
 Calling FoFCou, ICntrl=  3507 FMM=F I1Cent=   0 AccDes= 0.00D+00.
 FoFCou: FMM=F IPFlag=           0 FMFlag=      100000 FMFlg1=           0
         NFxFlg=           0 DoJE=F BraDBF=F KetDBF=F FulRan=T
         Omega=  0.000000  0.000000  1.000000  0.000000  0.000000 ICntrl=    3507 IOpCl=  0
         NMat0=    1 NMatS0=    1 NMatT0=    0 NMatD0=    4 NMtDS0=    3 NMtDT0=    0
         I1Cent=           0 NGrid=           0.
 Petite list used in FoFCou.
 FoFDir/FoFCou used for L=0 through L=2.
 End of G2Drv Frequency-dependent properties file   721 does not exist.
 End of G2Drv Frequency-dependent properties file   722 does not exist.
 Leave Link 1110 at Thu Feb 26 00:55:36 2015, MaxMem= 1073741824 cpu:      53.7
 (Enter /apps/gaussian/g09_c01/g09/l1002.exe)
 Minotr:  Closed shell wavefunction.
          IDoAtm=11111111
          Direct CPHF calculation.
          Differentiating once with respect to electric field.
                with respect to dipole field.
          Differentiating once with respect to nuclear coordinates.
          Using symmetry in CPHF.
          Requested convergence is 1.0D-08 RMS, and 1.0D-07 maximum.
          Secondary convergence is 1.0D-12 RMS, and 1.0D-12 maximum.
          NewPWx=T KeepS1=F KeepF1=F KeepIn=T MapXYZ=F SortEE=F KeepMc=T.
          MDV=    1073741740 using IRadAn=       1.
 Generate precomputed XC quadrature information.
          Keep J ints in memory in canonical form, NReq=15732048.
 Symmetry not used in FoFDir.
 MinBra= 0 MaxBra= 2 Meth= 1.
 IRaf=       0 NMat=   1 IRICut=       1 DoRegI=T DoRafI=F ISym2E= 0 JSym2E=0.
          Solving linear equations simultaneously, MaxMat=       0.
          There are    15 degrees of freedom in the 1st order CPHF.  IDoFFX=4.
 Will reuse    3 saved solutions.
     12 vectors produced by pass  0 Test12= 5.46D-15 6.67D-09 XBig12= 1.06D-01 1.16D-01.
 AX will form    12 AO Fock derivatives at one time.
     12 vectors produced by pass  1 Test12= 5.46D-15 6.67D-09 XBig12= 2.23D-02 7.45D-02.
     12 vectors produced by pass  2 Test12= 5.46D-15 6.67D-09 XBig12= 6.99D-04 7.79D-03.
     12 vectors produced by pass  3 Test12= 5.46D-15 6.67D-09 XBig12= 2.44D-06 3.58D-04.
     12 vectors produced by pass  4 Test12= 5.46D-15 6.67D-09 XBig12= 7.75D-10 5.07D-06.
      7 vectors produced by pass  5 Test12= 5.46D-15 6.67D-09 XBig12= 1.52D-13 8.72D-08.
 Inverted reduced A of dimension    67 with in-core refinement.
 FullF1:  Do perturbations    1 to    15.
 Isotropic polarizability for W=    0.000000       20.80 Bohr**3.
 FullF1:  Do perturbations    1 to     6.
 End of Minotr Frequency-dependent properties file   721 does not exist.
 End of Minotr Frequency-dependent properties file   722 does not exist.
 Leave Link 1002 at Thu Feb 26 00:55:43 2015, MaxMem= 1073741824 cpu:      54.2
 (Enter /apps/gaussian/g09_c01/g09/l601.exe)
 Copying SCF densities to generalized density rwf, IOpCl= 0 IROHF=0.

 **********************************************************************

            Population analysis using the SCF density.

 **********************************************************************

 Orbital symmetries:
       Occupied  (A) (A) (A) (A) (E) (E) (A) (E) (E)
       Virtual   (A) (A) (E) (E) (E) (E) (A) (A) (E) (E) (E) (E)
                 (A) (A) (E) (E) (E) (E) (A) (E) (E) (A) (A) (E)
                 (E) (A) (A) (E) (E) (E) (E) (A) (E) (E) (A) (A)
                 (E) (E) (A) (E) (E) (E) (E) (A) (E) (E) (A) (E)
                 (E) (E) (E) (A) (A) (A) (E) (E) (E) (E) (E) (E)
                 (A) (A) (A) (E) (E) (A) (E) (E) (A) (E) (E) (A)
                 (E) (E) (E) (E) (A) (E) (E) (E) (E) (A) (A) (E)
                 (E) (A) (E) (E) (A) (E) (E)
 The electronic state is 1-A.
 Alpha  occ. eigenvalues --  -14.34694 -10.15785  -1.14270  -0.87092  -0.75177
 Alpha  occ. eigenvalues --   -0.75177  -0.66110  -0.57970  -0.57970
 Alpha virt. eigenvalues --   -0.23576  -0.16844  -0.16788  -0.16788  -0.12129
 Alpha virt. eigenvalues --   -0.12129  -0.11774  -0.09115  -0.07487  -0.07487
 Alpha virt. eigenvalues --   -0.06321  -0.06321  -0.04897  -0.02195  -0.01904
 Alpha virt. eigenvalues --   -0.01904  -0.00355  -0.00355   0.01248   0.05561
 Alpha virt. eigenvalues --    0.05561   0.08648   0.13788   0.14592   0.14592
 Alpha virt. eigenvalues --    0.15629   0.16458   0.19843   0.19843   0.23819
 Alpha virt. eigenvalues --    0.23819   0.23945   0.25651   0.25651   0.26499
 Alpha virt. eigenvalues --    0.27056   0.27697   0.27697   0.30273   0.35365
 Alpha virt. eigenvalues --    0.35365   0.41110   0.41110   0.41157   0.47606
 Alpha virt. eigenvalues --    0.47606   0.56547   0.59006   0.59006   0.60899
 Alpha virt. eigenvalues --    0.60899   0.61351   0.67619   0.81009   0.83267
 Alpha virt. eigenvalues --    0.83267   1.05299   1.05299   1.21698   1.21698
 Alpha virt. eigenvalues --    1.29455   1.32953   1.34755   1.38431   1.38431
 Alpha virt. eigenvalues --    1.40163   1.50742   1.50742   1.53959   1.65126
 Alpha virt. eigenvalues --    1.65126   1.69511   1.71815   1.71815   1.83062
 Alpha virt. eigenvalues --    1.83062   1.87032   1.88052   1.88052   2.09139
 Alpha virt. eigenvalues --    2.09139   2.13440   2.21376   2.22401   2.22401
 Alpha virt. eigenvalues --    2.26663   2.41126   2.41126   2.49349   2.83159
 Alpha virt. eigenvalues --    2.83159
          Condensed to atoms (all electrons):
              1          2          3          4          5          6
     1  C    4.034743   0.324566   0.324566   0.324566   0.130183  -0.045612
     2  H    0.324566   1.423460  -0.250691  -0.250691  -0.080572   0.039136
     3  H    0.324566  -0.250691   1.423460  -0.250691  -0.080572  -0.027076
     4  H    0.324566  -0.250691  -0.250691   1.423460  -0.080572  -0.027079
     5  N    0.130183  -0.080572  -0.080572  -0.080572   5.960577   0.355572
     6  H   -0.045612   0.039136  -0.027076  -0.027079   0.355572   0.764994
     7  H   -0.045612  -0.027076  -0.027079   0.039136   0.355572  -0.091752
     8  H   -0.045612  -0.027079   0.039136  -0.027076   0.355572  -0.091752
              7          8
     1  C   -0.045612  -0.045612
     2  H   -0.027076  -0.027079
     3  H   -0.027079   0.039136
     4  H    0.039136  -0.027076
     5  N    0.355572   0.355572
     6  H   -0.091752  -0.091752
     7  H    0.764994  -0.091752
     8  H   -0.091752   0.764994
 Mulliken atomic charges:
              1
     1  C    0.998212
     2  H   -0.151053
     3  H   -0.151053
     4  H   -0.151053
     5  N    0.084243
     6  H    0.123568
     7  H    0.123568
     8  H    0.123568
 Sum of Mulliken atomic charges =   1.00000
 Mulliken charges with hydrogens summed into heavy atoms:
              1
     1  C    0.545053
     5  N    0.454947
 Sum of Mulliken charges with hydrogens summed into heavy atoms =   1.00000
 APT atomic charges:
              1
     1  C    0.217507
     2  H    0.072267
     3  H    0.072269
     4  H    0.072269
     5  N   -0.178240
     6  H    0.247974
     7  H    0.247974
     8  H    0.247974
 Sum of APT charges=   1.00000
 APT Atomic charges with hydrogens summed into heavy atoms:
              1
     1  C    0.434313
     2  H    0.000000
     3  H    0.000000
     4  H    0.000000
     5  N    0.565682
     6  H    0.000000
     7  H    0.000000
     8  H    0.000000
 Sum of APT charges=   1.00000
 Electronic spatial extent (au):  <R**2>=             94.8601
 Charge=              1.0000 electrons
 Dipole moment (field-independent basis, Debye):
    X=              0.0000    Y=              0.0000    Z=              2.1750  Tot=              2.1750
 Quadrupole moment (field-independent basis, Debye-Ang):
   XX=            -10.2460   YY=            -10.2460   ZZ=             -6.7385
   XY=              0.0000   XZ=              0.0000   YZ=              0.0000
 Traceless Quadrupole moment (field-independent basis, Debye-Ang):
   XX=             -1.1692   YY=             -1.1692   ZZ=              2.3384
   XY=              0.0000   XZ=              0.0000   YZ=              0.0000
 Octapole moment (field-independent basis, Debye-Ang**2):
  XXX=             -0.3569  YYY=             -0.1025  ZZZ=              5.7256  XYY=              0.3569
  XXY=              0.1025  XXZ=              2.5650  XZZ=              0.0000  YZZ=              0.0000
  YYZ=              2.5650  XYZ=              0.0000
 Hexadecapole moment (field-independent basis, Debye-Ang**3):
 XXXX=            -18.4808 YYYY=            -18.4808 ZZZZ=            -63.0129 XXXY=              0.0000
 XXXZ=             -2.7304 YYYX=              0.0000 YYYZ=             -0.7804 ZZZX=              0.0000
 ZZZY=              0.0000 XXYY=             -6.1603 XXZZ=            -11.0010 YYZZ=            -11.0010
 XXYZ=              0.7804 YYXZ=              2.7304 ZZXY=              0.0000
 N-N= 4.758461005939D+01 E-N=-3.129693965400D+02  KE= 9.542394807739D+01
  Exact polarizability:  19.706   0.000  19.706   0.000   0.000  22.980
 Approx polarizability:  29.877   0.000  29.877   0.000   0.000  32.019
 No NMR shielding tensors so no spin-rotation constants.
 Leave Link  601 at Thu Feb 26 00:55:43 2015, MaxMem= 1073741824 cpu:       1.0
 (Enter /apps/gaussian/g09_c01/g09/l701.exe)
 Compute integral second derivatives.
 ... and contract with generalized density number  0.
 Leave Link  701 at Thu Feb 26 00:55:44 2015, MaxMem= 1073741824 cpu:       1.2
 (Enter /apps/gaussian/g09_c01/g09/l702.exe)
 L702 exits ... SP integral derivatives will be done elsewhere.
 Leave Link  702 at Thu Feb 26 00:55:44 2015, MaxMem= 1073741824 cpu:       0.1
 (Enter /apps/gaussian/g09_c01/g09/l703.exe)
 Compute integral second derivatives, UseDBF=F ICtDFT=           0.
 Integral derivatives from FoFDir, PRISM(SPDF).
 Calling FoFJK, ICntrl=    100527 FMM=F ISym2X=1 I1Cent= 0 IOpClX= 0 NMat=1 NMatS=1 NMatT=0.
 FoFCou: FMM=F IPFlag=           0 FMFlag=      100000 FMFlg1=         800
         NFxFlg=           0 DoJE=F BraDBF=F KetDBF=F FulRan=T
         Omega=  0.000000  0.000000  1.000000  0.000000  0.000000 ICntrl=  100527 IOpCl=  0
         NMat0=    1 NMatS0=    1 NMatT0=    0 NMatD0=    1 NMtDS0=    0 NMtDT0=    0
         I1Cent=           0 NGrid=           0.
 Petite list used in FoFCou.
 Leave Link  703 at Thu Feb 26 00:55:49 2015, MaxMem= 1073741824 cpu:      45.6
 (Enter /apps/gaussian/g09_c01/g09/l716.exe)
 Dipole        = 7.92703576D-15 2.21610924D-16 8.55695859D-01
 Polarizability= 1.97060159D+01 1.45153655D-05 1.97060229D+01
                 1.05148640D-05 2.42511306D-05 2.29797130D+01
 HyperPolar    = 1.49113619D+00-4.27096583D-01-1.49413131D+00
                 4.21105431D-01-2.68742488D+00-1.38008227D-03
                -2.68654770D+00 7.99951535D-05-9.78532860D-04
                 1.13845819D+01
 ***** Axes restored to original set *****
 -------------------------------------------------------------------
 Center     Atomic                   Forces (Hartrees/Bohr)
 Number     Number              X              Y              Z
 -------------------------------------------------------------------
      1        6           0.000000000    0.000000000    0.008358418
      2        1          -0.000649796   -0.006985212   -0.002101259
      3        1          -0.005724473    0.004055345   -0.002101259
      4        1           0.006374268    0.002929866   -0.002101259
      5        7           0.000000000    0.000000000   -0.006078398
      6        1           0.000351728    0.003781897    0.001341252
      7        1          -0.003451082   -0.001586343    0.001341252
      8        1           0.003099355   -0.002195553    0.001341252
 -------------------------------------------------------------------
 Cartesian Forces:  Max     0.008358418 RMS     0.003630762
 Force constants in Cartesian coordinates: 
                1             2             3             4             5 
      1  0.626253D+00
      2  0.000000D+00  0.626252D+00
      3  0.000000D+00  0.000000D+00  0.387132D+00
      4 -0.448977D-01 -0.256906D-01 -0.832475D-02  0.419352D-01
      5 -0.256912D-01 -0.318797D+00 -0.894768D-01  0.270593D-01  0.330420D+00
      6 -0.691283D-02 -0.742916D-01 -0.663233D-01  0.843396D-02  0.906458D-01
      7 -0.228073D+00  0.131448D+00 -0.733268D-01  0.365643D-02 -0.394497D-02
      8  0.131447D+00 -0.135622D+00  0.519478D-01  0.216399D-01 -0.115237D-01
      9 -0.608818D-01  0.431325D-01 -0.663233D-01  0.851578D-02 -0.423235D-02
     10 -0.272571D+00 -0.105756D+00  0.816514D-01 -0.665598D-04  0.179550D-02
     11 -0.105757D+00 -0.911233D-01  0.375286D-01 -0.237893D-01 -0.780072D-02
     12  0.677945D-01  0.311588D-01 -0.663229D-01 -0.914996D-02 -0.258959D-02
     13 -0.888719D-01 -0.168354D-05  0.000000D+00 -0.131671D-02  0.678528D-03
     14  0.157840D-05 -0.888716D-01  0.000000D+00  0.678118D-03  0.591654D-02
     15  0.000000D+00  0.000000D+00 -0.151672D+00  0.429602D-03  0.462687D-02
     16 -0.299135D-03  0.567720D-03 -0.173706D-03  0.401886D-03  0.594322D-04
     17  0.567127D-03  0.574012D-02 -0.187257D-02  0.592803D-04  0.103415D-02
     18 -0.292855D-02 -0.314630D-01 -0.121639D-01  0.199300D-03  0.214607D-02
     19  0.472176D-02  0.233159D-02  0.170840D-02  0.238035D-03  0.269562D-03
     20  0.233110D-02  0.719288D-03  0.785722D-03  0.779530D-03  0.280910D-03
     21  0.287122D-01  0.131953D-01 -0.121637D-01  0.368147D-03 -0.599166D-03
     22  0.373890D-02 -0.289848D-02 -0.153482D-02  0.496718D-04 -0.226129D-03
     23 -0.289908D-02  0.170214D-02  0.108659D-02 -0.735905D-03  0.470086D-03
     24 -0.257835D-01  0.182676D-01 -0.121638D-01 -0.472036D-03 -0.520953D-03
                6             7             8             9            10 
      6  0.817787D-01
      7  0.233233D-02  0.234864D+00
      8  0.921889D-02 -0.138447D+00  0.137490D+00
      9  0.445734D-02  0.742846D-01 -0.526269D-01  0.817787D-01
     10 -0.592565D-03 -0.153908D-01 -0.106429D-01  0.681763D-02  0.281733D+00
     11  0.949106D-02  0.149419D-01  0.752351D-02 -0.662930D-02  0.111388D+00
     12  0.445734D-02 -0.792321D-02 -0.525870D-02  0.445734D-02 -0.827186D-01
     13 -0.323797D-02  0.352087D-02 -0.347095D-02 -0.285290D-01  0.469577D-02
     14 -0.348119D-01 -0.347156D-02  0.107912D-02  0.202100D-01  0.279268D-02
     15 -0.200156D-01  0.379215D-02 -0.268549D-02 -0.200155D-01 -0.422180D-02
     16  0.162851D-03 -0.184079D-03 -0.535823D-03 -0.759225D-03 -0.515905D-04
     17  0.174456D-02 -0.258541D-04  0.703024D-03  0.662954D-03  0.167665D-03
     18 -0.639245D-02 -0.702967D-03 -0.192415D-04  0.101844D-02  0.687177D-03
     19 -0.194522D-03  0.781555D-03  0.313352D-03 -0.877304D-03  0.927487D-03
     20 -0.988985D-03 -0.196424D-03 -0.261798D-03  0.496457D-03  0.244024D-03
     21  0.101844D-02 -0.215141D-03  0.669272D-03  0.101956D-02 -0.195820D-02
     22  0.870758D-05  0.824679D-03 -0.303380D-03  0.142941D-02  0.724462D-03
     23 -0.100800D-02 -0.303532D-03  0.611355D-03 -0.101331D-02  0.112765D-04
     24  0.101956D-02  0.175890D-02 -0.124563D-02 -0.639245D-02  0.334820D-03
               11            12            13            14            15 
     11  0.906223D-01
     12 -0.380189D-01  0.817787D-01
     13  0.279327D-02  0.317668D-01  0.699452D+00
     14 -0.958821D-04  0.146017D-01  0.000000D+00  0.699452D+00
     15 -0.194152D-02 -0.200155D-01  0.000000D+00  0.000000D+00  0.488577D+00
     16  0.677441D-03  0.868596D-03 -0.577855D-01 -0.278018D-01 -0.103259D-01
     17  0.571348D-03  0.511539D-03 -0.278013D-01 -0.353868D+00 -0.110922D+00
     18 -0.148319D-03  0.101956D-02 -0.109263D-01 -0.117374D+00 -0.922867D-01
     19  0.244176D-03 -0.159226D-02 -0.303924D+00 -0.114307D+00  0.101224D+00
     20  0.508547D-03 -0.731247D-03 -0.114306D+00 -0.107729D+00  0.465181D-01
     21 -0.900434D-03 -0.639245D-02  0.107112D+00  0.492244D-01 -0.922864D-01
     22 -0.498692D-03  0.953747D-03 -0.255770D+00  0.142108D+00 -0.908980D-01
     23 -0.205516D-03  0.326032D-03  0.142108D+00 -0.155883D+00  0.644033D-01
     24  0.618408D-03  0.101844D-02 -0.961856D-01  0.681494D-01 -0.922866D-01
               16            17            18            19            20 
     16  0.543330D-01
     17  0.298899D-01  0.372644D+00
     18  0.112002D-01  0.120326D+00  0.992657D-01
     19 -0.681180D-03  0.881022D-03 -0.389941D-03  0.318952D+00
     20 -0.300740D-01 -0.109384D-01  0.134180D-01  0.122888D+00  0.108025D+00
     21 -0.127881D-01 -0.407963D-02  0.476971D-02 -0.109805D+00 -0.504634D-01
     22  0.426684D-02 -0.373776D-02  0.286098D-02 -0.210150D-01  0.183342D-01
     23  0.272172D-01 -0.158864D-01  0.131146D-01 -0.126208D-01  0.939544D-02
     24  0.118153D-01 -0.637131D-02  0.476971D-02  0.992711D-02 -0.903499D-02
               21            22            23            24 
     21  0.992657D-01
     22 -0.114254D-01  0.267181D+00
     23 -0.704670D-02 -0.152778D+00  0.159796D+00
     24  0.476971D-02  0.986053D-01 -0.698626D-01  0.992657D-01
 Force constants in internal coordinates: 
                1             2             3             4             5 
      1  0.362458D+00
      2  0.700714D-03  0.362458D+00
      3  0.700697D-03  0.700673D-03  0.362458D+00
      4  0.221006D-02  0.221004D-02  0.221020D-02  0.261273D+00
      5 -0.144631D-02  0.271697D-03  0.271350D-03  0.509875D-02  0.420732D+00
      6  0.271747D-03  0.271354D-03 -0.144622D-02  0.509879D-02  0.135413D-02
      7  0.271329D-03 -0.144625D-02  0.271733D-03  0.509873D-02  0.135411D-02
      8  0.352186D-02  0.352173D-02 -0.145809D-02 -0.256333D-01  0.377376D-05
      9  0.352171D-02 -0.145815D-02  0.352196D-02 -0.256333D-01  0.453719D-05
     10  0.119234D-02 -0.353338D-02 -0.353301D-02  0.269575D-01  0.254530D-02
     11 -0.145816D-02  0.352189D-02  0.352183D-02 -0.256333D-01  0.903847D-03
     12 -0.353295D-02  0.119231D-02 -0.353334D-02  0.269574D-01 -0.175256D-02
     13 -0.353334D-02 -0.353293D-02  0.119209D-02  0.269577D-01 -0.175201D-02
     14  0.641266D-03  0.250107D-04  0.240942D-04  0.141974D-01 -0.484417D-02
     15  0.249616D-04  0.240444D-04  0.641303D-03  0.141975D-01 -0.390637D-02
     16  0.240524D-04  0.641262D-03  0.250788D-04  0.141975D-01 -0.390546D-02
     17 -0.335200D-03 -0.718977D-04 -0.334796D-03 -0.152576D-01  0.677757D-02
     18 -0.334734D-03 -0.335210D-03 -0.719584D-04 -0.152577D-01  0.678460D-02
     19 -0.718901D-04 -0.334757D-03 -0.335281D-03 -0.152576D-01  0.388778D-04
     20  0.000000D+00 -0.285299D-02  0.285293D-02  0.000000D+00  0.496919D-05
     21  0.288075D-04 -0.291106D-02  0.288194D-02  0.000000D+00  0.265161D-02
     22 -0.292786D-04 -0.288207D-02  0.291100D-02  0.000000D+00 -0.265126D-02
     23  0.288198D-02  0.288057D-04 -0.291105D-02  0.000000D+00  0.460410D-03
     24  0.291103D-02 -0.292617D-04 -0.288205D-02  0.000000D+00  0.310705D-02
     25  0.285295D-02  0.000000D+00 -0.285299D-02  0.000000D+00 -0.219581D-02
     26 -0.288207D-02  0.291105D-02 -0.292314D-04  0.000000D+00 -0.451698D-03
     27 -0.285301D-02  0.285298D-02  0.000000D+00  0.000000D+00  0.219494D-02
     28 -0.291109D-02  0.288197D-02  0.288326D-04  0.000000D+00 -0.310792D-02
                6             7             8             9            10 
      6  0.420732D+00
      7  0.135413D-02  0.420732D+00
      8  0.903766D-03  0.446448D-05  0.494872D-01
      9  0.365156D-05  0.903813D-03  0.113808D-01  0.494871D-01
     10 -0.175253D-02 -0.175192D-02 -0.432977D-01 -0.432933D-01  0.126746D+00
     11  0.437757D-05  0.372197D-05  0.113808D-01  0.113808D-01  0.106099D-01
     12 -0.175192D-02  0.254538D-02 -0.432933D-01  0.106098D-01 -0.234199D-01
     13  0.254555D-02 -0.175257D-02  0.106098D-01 -0.432976D-01 -0.234202D-01
     14 -0.390561D-02 -0.390643D-02 -0.391404D-02 -0.391418D-02  0.161500D-01
     15 -0.484425D-02 -0.390555D-02  0.305701D-02 -0.391408D-02 -0.556557D-02
     16 -0.390648D-02 -0.484417D-02 -0.391419D-02  0.305701D-02 -0.556675D-02
     17  0.678473D-02  0.389143D-04  0.795184D-03  0.353733D-02 -0.464397D-02
     18  0.389696D-04  0.677764D-02  0.353731D-02  0.794975D-03 -0.464323D-02
     19  0.677771D-02  0.678466D-02  0.794998D-03  0.795229D-03  0.389485D-02
     20 -0.219583D-02  0.219497D-02 -0.540379D-02  0.540168D-02  0.239132D-05
     21  0.460403D-03 -0.310795D-02 -0.497704D-02  0.454852D-02  0.133288D-02
     22  0.310710D-02 -0.451720D-03 -0.455063D-02  0.497530D-02 -0.132824D-02
     23 -0.310796D-02  0.265165D-02  0.454854D-02  0.426788D-03  0.697476D-02
     24 -0.451728D-03 -0.265127D-02  0.497529D-02 -0.426373D-03  0.830525D-02
     25  0.219496D-02  0.495965D-05  0.540170D-02  0.000000D+00  0.564413D-02
     26 -0.265129D-02  0.310707D-02 -0.426387D-03 -0.455066D-02 -0.697515D-02
     27  0.494474D-05 -0.219585D-02  0.000000D+00 -0.540382D-02 -0.564467D-02
     28  0.265164D-02  0.460382D-03  0.426769D-03 -0.497705D-02 -0.830579D-02
               11            12            13            14            15 
     11  0.494871D-01
     12 -0.432977D-01  0.126746D+00
     13 -0.432932D-01 -0.234202D-01  0.126746D+00
     14  0.305699D-02 -0.556558D-02 -0.556669D-02  0.946096D-01
     15 -0.391422D-02 -0.556679D-02  0.161501D-01 -0.177426D-01  0.946098D-01
     16 -0.391411D-02  0.161500D-01 -0.556551D-02 -0.177425D-01 -0.177427D-01
     17  0.795024D-03  0.389490D-02 -0.464335D-02 -0.383480D-01 -0.383477D-01
     18  0.795219D-03 -0.464401D-02  0.389485D-02 -0.383476D-01  0.131562D-01
     19  0.353739D-02 -0.464323D-02 -0.464413D-02  0.131562D-01 -0.383480D-01
     20  0.000000D+00 -0.564478D-02  0.564422D-02  0.000000D+00 -0.243132D-02
     21  0.426771D-03 -0.830587D-02  0.697483D-02  0.376844D-02  0.133776D-02
     22 -0.426361D-03 -0.697524D-02  0.830526D-02 -0.376912D-02  0.510636D-02
     23 -0.497703D-02  0.133292D-02 -0.830588D-02  0.133774D-02 -0.510620D-02
     24 -0.455063D-02 -0.132817D-02 -0.697527D-02  0.510627D-02 -0.133713D-02
     25 -0.540376D-02  0.245861D-05 -0.564484D-02 -0.243129D-02  0.243147D-02
     26  0.497525D-02  0.830522D-02 -0.132818D-02 -0.133712D-02 -0.376919D-02
     27  0.540165D-02  0.564414D-02  0.243451D-05  0.243141D-02  0.000000D+00
     28  0.454852D-02  0.697477D-02  0.133287D-02 -0.510615D-02  0.376848D-02
               16            17            18            19            20 
     16  0.946097D-01
     17  0.131562D-01  0.509302D-01
     18 -0.383480D-01  0.867696D-02  0.509302D-01
     19 -0.383476D-01  0.867693D-02  0.867694D-02  0.509301D-01
     20  0.243146D-02 -0.672174D-02  0.672167D-02  0.000000D+00  0.134817D-01
     21 -0.510615D-02  0.567098D-02  0.525460D-03 -0.619649D-02  0.324469D-02
     22 -0.133711D-02 -0.525289D-03 -0.567105D-02  0.619621D-02  0.324480D-02
     23  0.376847D-02 -0.619646D-02  0.567098D-02  0.525464D-03  0.380697D-02
     24 -0.376914D-02  0.619626D-02 -0.525236D-03 -0.567104D-02 -0.643002D-02
     25  0.000000D+00  0.000000D+00 -0.672175D-02  0.672166D-02 -0.642991D-02
     26  0.510628D-02 -0.567101D-02  0.619625D-02 -0.525208D-03  0.380709D-02
     27 -0.243133D-02  0.672170D-02  0.000000D+00 -0.672171D-02 -0.642990D-02
     28  0.133772D-02  0.525437D-03 -0.619648D-02  0.567099D-02 -0.642979D-02
               21            22            23            24            25 
     21  0.139745D-01
     22  0.349122D-02  0.139747D-01
     23 -0.667633D-02 -0.692287D-02  0.139745D-01
     24  0.405350D-02 -0.667644D-02  0.349122D-02  0.139747D-01
     25 -0.642979D-02  0.380708D-02  0.324468D-02  0.324479D-02  0.134817D-01
     26 -0.692286D-02 -0.667643D-02  0.405353D-02 -0.667642D-02 -0.642999D-02
     27  0.380697D-02 -0.643000D-02 -0.642977D-02  0.380710D-02 -0.642988D-02
     28 -0.667632D-02  0.405352D-02 -0.667631D-02 -0.692285D-02  0.380700D-02
               26            27            28 
     26  0.139747D-01
     27  0.324476D-02  0.134816D-01
     28  0.349119D-02  0.324466D-02  0.139745D-01
 Leave Link  716 at Thu Feb 26 00:55:49 2015, MaxMem= 1073741824 cpu:       0.1
 (Enter /apps/gaussian/g09_c01/g09/l103.exe)

 GradGradGradGradGradGradGradGradGradGradGradGradGradGradGradGradGradGrad
 Berny optimization.
 Red2BG is reusing G-inverse.
 Internal  Forces:  Max     0.007320767 RMS     0.002764424
 Search for a local minimum.
 Step number   1 out of a maximum of   38
 All quantities printed in internal units (Hartrees-Bohrs-Radians)
 RMS Force = .27644D-02 SwitMx=.10000D-02 MixMth= 1
 Mixed Optimization -- RFO/linear search
 Second derivative matrix not updated -- analytic derivatives used.
 ITU=  0
     Eigenvalues ---    0.00187   0.04426   0.04426   0.04612   0.04612
     Eigenvalues ---    0.11364   0.12638   0.12658   0.12658   0.18633
     Eigenvalues ---    0.18633   0.29904   0.36213   0.36213   0.36419
     Eigenvalues ---    0.41981   0.41981   0.42489
 RFO step:  Lambda=-5.79247704D-04 EMin= 1.86560432D-03
 Linear search not attempted -- first point.
 Iteration  1 RMS(Cart)=  0.00683960 RMS(Int)=  0.00000514
 Iteration  2 RMS(Cart)=  0.00000703 RMS(Int)=  0.00000039
 Iteration  3 RMS(Cart)=  0.00000000 RMS(Int)=  0.00000039
 ClnCor:  largest displacement from symmetrization is 2.96D-08 for atom     3.
 Variable       Old X    -DE/DX   Delta X   Delta X   Delta X     New X
                                 (Linear)    (Quad)   (Total)
    R1        2.05946   0.00732   0.00000   0.02020   0.02020   2.07966
    R2        2.05946   0.00732   0.00000   0.02020   0.02020   2.07966
    R3        2.05946   0.00732   0.00000   0.02020   0.02020   2.07966
    R4        2.86675  -0.00205   0.00000  -0.00989  -0.00989   2.85685
    R5        1.94289   0.00403   0.00000   0.00971   0.00971   1.95260
    R6        1.94289   0.00403   0.00000   0.00971   0.00971   1.95260
    R7        1.94289   0.00403   0.00000   0.00971   0.00971   1.95260
    A1        1.93261   0.00020   0.00000  -0.00111  -0.00111   1.93150
    A2        1.93261   0.00020   0.00000  -0.00111  -0.00111   1.93150
    A3        1.88811  -0.00021   0.00000   0.00116   0.00116   1.88927
    A4        1.93261   0.00020   0.00000  -0.00111  -0.00111   1.93150
    A5        1.88811  -0.00021   0.00000   0.00116   0.00116   1.88927
    A6        1.88811  -0.00021   0.00000   0.00116   0.00116   1.88927
    A7        1.94749  -0.00014   0.00000   0.00081   0.00081   1.94830
    A8        1.94749  -0.00014   0.00000   0.00081   0.00081   1.94830
    A9        1.94749  -0.00014   0.00000   0.00081   0.00081   1.94830
   A10        1.87238   0.00015   0.00000  -0.00087  -0.00087   1.87151
   A11        1.87238   0.00015   0.00000  -0.00087  -0.00087   1.87151
   A12        1.87238   0.00015   0.00000  -0.00087  -0.00087   1.87151
    D1        3.14146   0.00000   0.00000   0.00007   0.00007   3.14154
    D2       -1.04733   0.00000   0.00000   0.00007   0.00007  -1.04725
    D3        1.04707   0.00000   0.00000   0.00007   0.00007   1.04714
    D4       -1.04733   0.00000   0.00000   0.00007   0.00007  -1.04725
    D5        1.04707   0.00000   0.00000   0.00007   0.00007   1.04714
    D6        3.14146   0.00000   0.00000   0.00007   0.00007   3.14154
    D7        1.04707   0.00000   0.00000   0.00007   0.00007   1.04714
    D8        3.14146   0.00000   0.00000   0.00007   0.00007   3.14154
    D9       -1.04733   0.00000   0.00000   0.00007   0.00007  -1.04725
         Item               Value     Threshold  Converged?
 Maximum Force            0.007321     0.000002     NO 
 RMS     Force            0.002764     0.000001     NO 
 Maximum Displacement     0.018354     0.000006     NO 
 RMS     Displacement     0.006838     0.000004     NO 
 Predicted change in Energy=-2.900931D-04
 GradGradGradGradGradGradGradGradGradGradGradGradGradGradGradGradGradGrad

 Leave Link  103 at Thu Feb 26 00:55:49 2015, MaxMem= 1073741824 cpu:       0.0
 (Enter /apps/gaussian/g09_c01/g09/l202.exe)
                          Input orientation:                          
 ---------------------------------------------------------------------
 Center     Atomic      Atomic             Coordinates (Angstroms)
 Number     Number       Type             X           Y           Z
 ---------------------------------------------------------------------
      1          6           0        0.000000    0.000000   -0.801130
      2          1           0       -0.096813   -1.040677   -1.145721
      3          1           0       -0.852846    0.604181   -1.145721
      4          1           0        0.949659    0.436496   -1.145721
      5          7           0        0.000000    0.000000    0.710652
      6          1           0        0.089026    0.956386    1.091513
      7          1           0       -0.872767   -0.401094    1.091513
      8          1           0        0.783742   -0.555291    1.091513
 ---------------------------------------------------------------------
                    Distance matrix (angstroms):
                    1          2          3          4          5
     1  C    0.000000
     2  H    1.100511   0.000000
     3  H    1.100511   1.810288   0.000000
     4  H    1.100511   1.810288   1.810288   0.000000
     5  N    1.511782   2.130377   2.130377   2.130377   0.000000
     6  H    2.122427   3.004665   2.452833   2.452793   1.033274
     7  H    2.122427   2.452833   2.452793   3.004665   1.033274
     8  H    2.122427   2.452793   3.004665   2.452833   1.033274
                    6          7          8
     6  H    0.000000
     7  H    1.663670   0.000000
     8  H    1.663670   1.663670   0.000000
 Stoichiometry    CH6N(1+)
 Framework group  C3[C3(CN),X(H6)]
 Deg. of freedom     6
 Full point group                 C3      NOp   3
 RotChk:  IX=0 Diff= 0.00D+00
 Largest Abelian subgroup         C1      NOp   1
 Largest concise Abelian subgroup C1      NOp   1
                         Standard orientation:                         
 ---------------------------------------------------------------------
 Center     Atomic      Atomic             Coordinates (Angstroms)
 Number     Number       Type             X           Y           Z
 ---------------------------------------------------------------------
      1          6           0        0.000000    0.000000   -0.801402
      2          1           0        1.040677   -0.096813   -1.145993
      3          1           0       -0.604181   -0.852846   -1.145993
      4          1           0       -0.436496    0.949659   -1.145993
      5          7           0        0.000000    0.000000    0.710381
      6          1           0       -0.956386    0.089026    1.091242
      7          1           0        0.401095   -0.872767    1.091242
      8          1           0        0.555291    0.783742    1.091242
 ---------------------------------------------------------------------
 Rotational constants (GHZ):     82.9545053     19.9047753     19.9047753
 Leave Link  202 at Thu Feb 26 00:55:49 2015, MaxMem= 1073741824 cpu:       0.0
 (Enter /apps/gaussian/g09_c01/g09/l301.exe)
 Standard basis: Aug-CC-pVDZ (5D, 7F)
 Ernie: Thresh=  0.10000D-02 Tol=  0.10000D-05 Strict=F.
 Ernie:  4 primitive shells out of 92 were deleted.
 There are   100 symmetry adapted basis functions of A   symmetry.
 Integral buffers will be    131072 words long.
 Raffenetti 2 integral format.
 Two-electron integral symmetry is turned on.
   100 basis functions,   152 primitive gaussians,   104 cartesian basis functions
     9 alpha electrons        9 beta electrons
       nuclear repulsion energy        47.4697845419 Hartrees.
 IExCor= 1009 DFT=T Ex=PBE Corr=PBE ExCW=0 ScaHFX=  0.000000
 ScaDFX=  1.000000  1.000000  1.000000  1.000000 ScalE2=  1.000000  1.000000
 IRadAn=      5 IRanWt=     -1 IRanGd=            0 ICorTp=0
 NAtoms=    8 NActive=    8 NUniq=    4 SFac= 4.00D+00 NAtFMM=   60 NAOKFM=F Big=F
 Leave Link  301 at Thu Feb 26 00:55:49 2015, MaxMem= 1073741824 cpu:       0.3
 (Enter /apps/gaussian/g09_c01/g09/l302.exe)
 NPDir=0 NMtPBC=     1 NCelOv=     1 NCel=       1 NClECP=     1 NCelD=      1
         NCelK=      1 NCelE2=     1 NClLst=     1 CellRange=     0.0.
 One-electron integrals computed using PRISM.
 NBasis=   100 RedAO= T  NBF=   100
 NBsUse=   100 1.00D-06 NBFU=   100
 Precomputing XC quadrature grid using
 IXCGrd= 2 IRadAn=           5 IRanWt=          -1 IRanGd=           0 AccXCQ= 0.00D+00.
 NRdTot=     685 NPtTot=      183098 NUsed=      188010 NTot=      188042
 NSgBfM=   104   104   104   104   104 NAtAll=     8     8.
 Leave Link  302 at Thu Feb 26 00:55:50 2015, MaxMem= 1073741824 cpu:       1.1
 (Enter /apps/gaussian/g09_c01/g09/l303.exe)
 DipDrv:  MaxL=1.
 Leave Link  303 at Thu Feb 26 00:55:50 2015, MaxMem= 1073741824 cpu:       0.2
 (Enter /apps/gaussian/g09_c01/g09/l401.exe)
 Initial guess read from the read-write file.
 B after Tr=     0.000000    0.000000    0.000000
         Rot=    1.000000    0.000000    0.000000    0.000000 Ang=   0.00 deg.
 Guess basis will be translated and rotated to current coordinates.
 Initial guess orbital symmetries:
       Occupied  (A) (A) (A) (A) (E) (E) (A) (E) (E)
       Virtual   (A) (A) (E) (E) (E) (E) (A) (A) (E) (E) (E) (E)
                 (A) (A) (E) (E) (E) (E) (A) (E) (E) (A) (A) (E)
                 (E) (A) (A) (E) (E) (E) (E) (A) (E) (E) (A) (A)
                 (E) (E) (A) (E) (E) (E) (E) (A) (E) (E) (A) (E)
                 (E) (E) (E) (A) (A) (A) (E) (E) (E) (E) (E) (E)
                 (A) (A) (A) (E) (E) (A) (E) (E) (A) (E) (E) (A)
                 (E) (E) (E) (E) (A) (E) (E) (E) (E) (A) (A) (E)
                 (E) (A) (E) (E) (A) (E) (E)
 The electronic state of the initial guess is 1-A.
 Leave Link  401 at Thu Feb 26 00:55:50 2015, MaxMem= 1073741824 cpu:       0.6
 (Enter /apps/gaussian/g09_c01/g09/l502.exe)
 Closed shell SCF:
 Requested convergence on RMS density matrix=1.00D-08 within 128 cycles.
 Requested convergence on MAX density matrix=1.00D-06.
 Requested convergence on             energy=1.00D-06.
 No special actions if energy rises.
 Using DIIS extrapolation, IDIIS=  1040.
 Integral symmetry usage will be decided dynamically.
       187925 words used for storage of precomputed grid.
 Keep J ints in memory in canonical form, NReq=16077209.
 IEnd=      240235 IEndB=      240235 NGot=  1073741824 MDV=  1058620592
 LenX=  1058620592 LenY=  1058609335
 Symmetry not used in FoFDir.
 MinBra= 0 MaxBra= 2 Meth= 1.
 IRaf=       0 NMat=   1 IRICut=       1 DoRegI=T DoRafI=F ISym2E= 0 JSym2E=0.

 Cycle   1  Pass 1  IDiag  1:
 E= -96.0913800489275    
 DIIS: error= 6.32D-04 at cycle   1 NSaved=   1.
 NSaved= 1 IEnMin= 1 EnMin= -96.0913800489275     IErMin= 1 ErrMin= 6.32D-04
 ErrMax= 6.32D-04 EMaxC= 1.00D-01 BMatC= 5.87D-05 BMatP= 5.87D-05
 IDIUse=3 WtCom= 9.94D-01 WtEn= 6.32D-03
 Coeff-Com:  0.100D+01
 Coeff-En:   0.100D+01
 Coeff:      0.100D+01
 Gap=     0.342 Goal=   None    Shift=    0.000
 DSYEVD returned Info=         201 IAlg= 4 N=   100 NDim=   100 NE2=    10586092 trying DSYEV.
 RMSDP=5.30D-04 MaxDP=1.36D-02              OVMax= 2.77D-03

 Cycle   2  Pass 1  IDiag  1:
 E= -96.0914352245594     Delta-E=       -0.000055175632 Rises=F Damp=F
 DIIS: error= 4.15D-04 at cycle   2 NSaved=   2.
 NSaved= 2 IEnMin= 2 EnMin= -96.0914352245594     IErMin= 2 ErrMin= 4.15D-04
 ErrMax= 4.15D-04 EMaxC= 1.00D-01 BMatC= 8.13D-06 BMatP= 5.87D-05
 IDIUse=3 WtCom= 9.96D-01 WtEn= 4.15D-03
 Coeff-Com:  0.191D+00 0.809D+00
 Coeff-En:   0.000D+00 0.100D+01
 Coeff:      0.191D+00 0.809D+00
 Gap=     0.340 Goal=   None    Shift=    0.000
 DSYEVD returned Info=         201 IAlg= 4 N=   100 NDim=   100 NE2=    10586092 trying DSYEV.
 RMSDP=4.60D-05 MaxDP=1.19D-03 DE=-5.52D-05 OVMax= 1.41D-03

 Cycle   3  Pass 1  IDiag  1:
 E= -96.0914366769609     Delta-E=       -0.000001452401 Rises=F Damp=F
 DIIS: error= 3.35D-04 at cycle   3 NSaved=   3.
 NSaved= 3 IEnMin= 3 EnMin= -96.0914366769609     IErMin= 3 ErrMin= 3.35D-04
 ErrMax= 3.35D-04 EMaxC= 1.00D-01 BMatC= 6.43D-06 BMatP= 8.13D-06
 IDIUse=3 WtCom= 9.97D-01 WtEn= 3.35D-03
 Coeff-Com:  0.220D-01 0.469D+00 0.509D+00
 Coeff-En:   0.000D+00 0.454D+00 0.546D+00
 Coeff:      0.220D-01 0.469D+00 0.509D+00
 Gap=     0.340 Goal=   None    Shift=    0.000
 DSYEVD returned Info=         201 IAlg= 4 N=   100 NDim=   100 NE2=    10586092 trying DSYEV.
 RMSDP=2.08D-05 MaxDP=6.19D-04 DE=-1.45D-06 OVMax= 7.36D-04

 Cycle   4  Pass 1  IDiag  1:
 E= -96.0914428957941     Delta-E=       -0.000006218833 Rises=F Damp=F
 DIIS: error= 3.14D-05 at cycle   4 NSaved=   4.
 NSaved= 4 IEnMin= 4 EnMin= -96.0914428957941     IErMin= 4 ErrMin= 3.14D-05
 ErrMax= 3.14D-05 EMaxC= 1.00D-01 BMatC= 9.75D-08 BMatP= 6.43D-06
 IDIUse=1 WtCom= 1.00D+00 WtEn= 0.00D+00
 Coeff-Com:  0.334D-02 0.168D+00 0.218D+00 0.611D+00
 Coeff:      0.334D-02 0.168D+00 0.218D+00 0.611D+00
 Gap=     0.340 Goal=   None    Shift=    0.000
 DSYEVD returned Info=         201 IAlg= 4 N=   100 NDim=   100 NE2=    10586092 trying DSYEV.
 RMSDP=2.65D-06 MaxDP=7.65D-05 DE=-6.22D-06 OVMax= 8.15D-05

 Cycle   5  Pass 1  IDiag  1:
 E= -96.0914429752405     Delta-E=       -0.000000079446 Rises=F Damp=F
 DIIS: error= 1.38D-05 at cycle   5 NSaved=   5.
 NSaved= 5 IEnMin= 5 EnMin= -96.0914429752405     IErMin= 5 ErrMin= 1.38D-05
 ErrMax= 1.38D-05 EMaxC= 1.00D-01 BMatC= 9.92D-09 BMatP= 9.75D-08
 IDIUse=1 WtCom= 1.00D+00 WtEn= 0.00D+00
 Coeff-Com:  0.700D-03 0.677D-01 0.952D-01 0.337D+00 0.500D+00
 Coeff:      0.700D-03 0.677D-01 0.952D-01 0.337D+00 0.500D+00
 Gap=     0.340 Goal=   None    Shift=    0.000
 DSYEVD returned Info=         201 IAlg= 4 N=   100 NDim=   100 NE2=    10586092 trying DSYEV.
 RMSDP=8.11D-07 MaxDP=2.67D-05 DE=-7.94D-08 OVMax= 3.68D-05

 Cycle   6  Pass 1  IDiag  1:
 E= -96.0914429831846     Delta-E=       -0.000000007944 Rises=F Damp=F
 DIIS: error= 3.08D-06 at cycle   6 NSaved=   6.
 NSaved= 6 IEnMin= 6 EnMin= -96.0914429831846     IErMin= 6 ErrMin= 3.08D-06
 ErrMax= 3.08D-06 EMaxC= 1.00D-01 BMatC= 5.90D-10 BMatP= 9.92D-09
 IDIUse=1 WtCom= 1.00D+00 WtEn= 0.00D+00
 Coeff-Com: -0.121D-03 0.922D-02 0.157D-01 0.760D-01 0.240D+00 0.660D+00
 Coeff:     -0.121D-03 0.922D-02 0.157D-01 0.760D-01 0.240D+00 0.660D+00
 Gap=     0.340 Goal=   None    Shift=    0.000
 DSYEVD returned Info=         201 IAlg= 4 N=   100 NDim=   100 NE2=    10586092 trying DSYEV.
 RMSDP=1.98D-07 MaxDP=5.44D-06 DE=-7.94D-09 OVMax= 1.01D-05

 Cycle   7  Pass 1  IDiag  1:
 E= -96.0914429837564     Delta-E=       -0.000000000572 Rises=F Damp=F
 DIIS: error= 8.75D-08 at cycle   7 NSaved=   7.
 NSaved= 7 IEnMin= 7 EnMin= -96.0914429837564     IErMin= 7 ErrMin= 8.75D-08
 ErrMax= 8.75D-08 EMaxC= 1.00D-01 BMatC= 6.99D-13 BMatP= 5.90D-10
 IDIUse=1 WtCom= 1.00D+00 WtEn= 0.00D+00
 Coeff-Com: -0.190D-04 0.735D-03 0.123D-02 0.784D-02 0.253D-01 0.842D-01
 Coeff-Com:  0.881D+00
 Coeff:     -0.190D-04 0.735D-03 0.123D-02 0.784D-02 0.253D-01 0.842D-01
 Coeff:      0.881D+00
 Gap=     0.340 Goal=   None    Shift=    0.000
 DSYEVD returned Info=         201 IAlg= 4 N=   100 NDim=   100 NE2=    10586092 trying DSYEV.
 RMSDP=9.79D-09 MaxDP=1.65D-07 DE=-5.72D-10 OVMax= 2.64D-07

 SCF Done:  E(RPBE-PBE) =  -96.0914429838     A.U. after    7 cycles
             Convg  =    0.9785D-08             -V/T =  2.0076
 KE= 9.536541113965D+01 PE=-3.127128034313D+02 EE= 7.378616476605D+01
 Leave Link  502 at Thu Feb 26 00:55:51 2015, MaxMem= 1073741824 cpu:      11.8
 (Enter /apps/gaussian/g09_c01/g09/l801.exe)
 Range of M.O.s used for correlation:     1   100
 NBasis=   100 NAE=     9 NBE=     9 NFC=     0 NFV=     0
 NROrb=    100 NOA=     9 NOB=     9 NVA=    91 NVB=    91

 **** Warning!!: The largest alpha MO coefficient is  0.23448760D+02

 Leave Link  801 at Thu Feb 26 00:55:51 2015, MaxMem= 1073741824 cpu:       0.1
 (Enter /apps/gaussian/g09_c01/g09/l1002.exe)
 Minotr:  Closed shell wavefunction.
          Direct CPHF calculation.
          Differentiating once with respect to electric field.
                with respect to dipole field.
          Electric field/nuclear overlap derivatives assumed to be zero.
          Using symmetry in CPHF.
          Requested convergence is 1.0D-08 RMS, and 1.0D-07 maximum.
          Secondary convergence is 1.0D-12 RMS, and 1.0D-12 maximum.
          NewPWx=F KeepS1=T KeepF1=T KeepIn=T MapXYZ=F SortEE=F KeepMc=T.
          MDV=    1073741756 using IRadAn=       1.
 Generate precomputed XC quadrature information.
          Keep J ints in memory in canonical form, NReq=15731880.
 Symmetry not used in FoFDir.
 MinBra= 0 MaxBra= 2 Meth= 1.
 IRaf=       0 NMat=   1 IRICut=       1 DoRegI=T DoRafI=F ISym2E= 0 JSym2E=0.
          Solving linear equations simultaneously, MaxMat=       0.
          There are     3 degrees of freedom in the 1st order CPHF.  IDoFFX=0.
      3 vectors produced by pass  0 Test12= 2.73D-14 3.33D-08 XBig12= 1.47D+01 1.79D+00.
 AX will form     3 AO Fock derivatives at one time.
      3 vectors produced by pass  1 Test12= 2.73D-14 3.33D-08 XBig12= 1.26D+00 4.69D-01.
      3 vectors produced by pass  2 Test12= 2.73D-14 3.33D-08 XBig12= 4.43D-01 1.98D-01.
      3 vectors produced by pass  3 Test12= 2.73D-14 3.33D-08 XBig12= 3.11D-02 4.60D-02.
      3 vectors produced by pass  4 Test12= 2.73D-14 3.33D-08 XBig12= 9.94D-03 2.03D-02.
      3 vectors produced by pass  5 Test12= 2.73D-14 3.33D-08 XBig12= 5.85D-04 6.58D-03.
      3 vectors produced by pass  6 Test12= 2.73D-14 3.33D-08 XBig12= 1.32D-05 1.03D-03.
      3 vectors produced by pass  7 Test12= 2.73D-14 3.33D-08 XBig12= 1.65D-07 7.98D-05.
      1 vectors produced by pass  8 Test12= 2.73D-14 3.33D-08 XBig12= 6.31D-10 5.26D-06.
      1 vectors produced by pass  9 Test12= 2.73D-14 3.33D-08 XBig12= 7.85D-13 2.09D-07.
 Inverted reduced A of dimension    26 with in-core refinement.
 End of Minotr Frequency-dependent properties file   721 does not exist.
 End of Minotr Frequency-dependent properties file   722 does not exist.
 Leave Link 1002 at Thu Feb 26 00:55:55 2015, MaxMem= 1073741824 cpu:      31.4
 (Enter /apps/gaussian/g09_c01/g09/l1101.exe)
 Using compressed storage, NAtomX=     8.
 Will process   9 centers per pass.
 Leave Link 1101 at Thu Feb 26 00:55:55 2015, MaxMem= 1073741824 cpu:       1.0
 (Enter /apps/gaussian/g09_c01/g09/l1102.exe)
 Symmetrizing basis deriv contribution to polar:
 IMax=3 JMax=2 DiffMx= 0.00D+00
 Leave Link 1102 at Thu Feb 26 00:55:55 2015, MaxMem= 1073741824 cpu:       0.1
 (Enter /apps/gaussian/g09_c01/g09/l1110.exe)
 Forming Gx(P) for the SCF density, NAtomX=     8.
 Integral derivatives from FoFDir/FoFCou, PRISM(SPDF).
 Do as many integral derivatives as possible in FoFDir.
 G2DrvN: MDV=    1073741656.
 G2DrvN: will do     9 centers at a time, making    1 passes doing MaxLOS=2.
 Calling FoFCou, ICntrl=  3507 FMM=F I1Cent=   0 AccDes= 0.00D+00.
 FoFCou: FMM=F IPFlag=           0 FMFlag=      100000 FMFlg1=           0
         NFxFlg=           0 DoJE=F BraDBF=F KetDBF=F FulRan=T
         Omega=  0.000000  0.000000  1.000000  0.000000  0.000000 ICntrl=    3507 IOpCl=  0
         NMat0=    1 NMatS0=    1 NMatT0=    0 NMatD0=    4 NMtDS0=    3 NMtDT0=    0
         I1Cent=           0 NGrid=           0.
 Petite list used in FoFCou.
 FoFDir/FoFCou used for L=0 through L=2.
 End of G2Drv Frequency-dependent properties file   721 does not exist.
 End of G2Drv Frequency-dependent properties file   722 does not exist.
 Leave Link 1110 at Thu Feb 26 00:56:02 2015, MaxMem= 1073741824 cpu:      53.6
 (Enter /apps/gaussian/g09_c01/g09/l1002.exe)
 Minotr:  Closed shell wavefunction.
          IDoAtm=11111111
          Direct CPHF calculation.
          Differentiating once with respect to electric field.
                with respect to dipole field.
          Differentiating once with respect to nuclear coordinates.
          Using symmetry in CPHF.
          Requested convergence is 1.0D-08 RMS, and 1.0D-07 maximum.
          Secondary convergence is 1.0D-12 RMS, and 1.0D-12 maximum.
          NewPWx=T KeepS1=F KeepF1=F KeepIn=T MapXYZ=F SortEE=F KeepMc=T.
          MDV=    1073741740 using IRadAn=       1.
 Generate precomputed XC quadrature information.
          Keep J ints in memory in canonical form, NReq=15732048.
 Symmetry not used in FoFDir.
 MinBra= 0 MaxBra= 2 Meth= 1.
 IRaf=       0 NMat=   1 IRICut=       1 DoRegI=T DoRafI=F ISym2E= 0 JSym2E=0.
          Solving linear equations simultaneously, MaxMat=       0.
          There are    15 degrees of freedom in the 1st order CPHF.  IDoFFX=4.
 Will reuse    3 saved solutions.
     12 vectors produced by pass  0 Test12= 5.46D-15 6.67D-09 XBig12= 1.06D-01 1.13D-01.
 AX will form    12 AO Fock derivatives at one time.
     12 vectors produced by pass  1 Test12= 5.46D-15 6.67D-09 XBig12= 2.19D-02 7.28D-02.
     12 vectors produced by pass  2 Test12= 5.46D-15 6.67D-09 XBig12= 7.09D-04 7.20D-03.
     12 vectors produced by pass  3 Test12= 5.46D-15 6.67D-09 XBig12= 2.48D-06 3.63D-04.
     12 vectors produced by pass  4 Test12= 5.46D-15 6.67D-09 XBig12= 8.62D-10 4.79D-06.
      7 vectors produced by pass  5 Test12= 5.46D-15 6.67D-09 XBig12= 1.69D-13 9.24D-08.
 Inverted reduced A of dimension    67 with in-core refinement.
 FullF1:  Do perturbations    1 to    15.
 Isotropic polarizability for W=    0.000000       21.07 Bohr**3.
 FullF1:  Do perturbations    1 to     6.
 End of Minotr Frequency-dependent properties file   721 does not exist.
 End of Minotr Frequency-dependent properties file   722 does not exist.
 Leave Link 1002 at Thu Feb 26 00:56:09 2015, MaxMem= 1073741824 cpu:      54.2
 (Enter /apps/gaussian/g09_c01/g09/l701.exe)
 Compute integral second derivatives.
 ... and contract with generalized density number  0.
 Leave Link  701 at Thu Feb 26 00:56:09 2015, MaxMem= 1073741824 cpu:       1.2
 (Enter /apps/gaussian/g09_c01/g09/l702.exe)
 L702 exits ... SP integral derivatives will be done elsewhere.
 Leave Link  702 at Thu Feb 26 00:56:09 2015, MaxMem= 1073741824 cpu:       0.1
 (Enter /apps/gaussian/g09_c01/g09/l703.exe)
 Compute integral second derivatives, UseDBF=F ICtDFT=           0.
 Integral derivatives from FoFDir, PRISM(SPDF).
 Calling FoFJK, ICntrl=    100527 FMM=F ISym2X=1 I1Cent= 0 IOpClX= 0 NMat=1 NMatS=1 NMatT=0.
 FoFCou: FMM=F IPFlag=           0 FMFlag=      100000 FMFlg1=         800
         NFxFlg=           0 DoJE=F BraDBF=F KetDBF=F FulRan=T
         Omega=  0.000000  0.000000  1.000000  0.000000  0.000000 ICntrl=  100527 IOpCl=  0
         NMat0=    1 NMatS0=    1 NMatT0=    0 NMatD0=    1 NMtDS0=    0 NMtDT0=    0
         I1Cent=           0 NGrid=           0.
 Petite list used in FoFCou.
 Leave Link  703 at Thu Feb 26 00:56:15 2015, MaxMem= 1073741824 cpu:      45.6
 (Enter /apps/gaussian/g09_c01/g09/l716.exe)
 Dipole        =-3.10320346D-15 3.54707583D-15 8.60249533D-01
 Polarizability= 2.00110616D+01 1.32374684D-05 2.00110642D+01
                 5.74933891D-06 2.35404605D-05 2.31767345D+01
 HyperPolar    = 1.64791881D+00-4.71284509D-01-1.65135252D+00
                 4.71701284D-01-2.80203275D+00 3.51382915D-04
                -2.80207700D+00 1.19994312D-04 7.97134425D-04
                 1.23387221D+01
 ***** Axes restored to original set *****
 -------------------------------------------------------------------
 Center     Atomic                   Forces (Hartrees/Bohr)
 Number     Number              X              Y              Z
 -------------------------------------------------------------------
      1        6           0.000000000    0.000000000    0.000196412
      2        1          -0.000020616   -0.000221461   -0.000070735
      3        1          -0.000181483    0.000128584   -0.000070735
      4        1           0.000202098    0.000092877   -0.000070735
      5        7           0.000000000    0.000000000   -0.000064991
      6        1           0.000006375    0.000069637    0.000026928
      7        1          -0.000063495   -0.000029297    0.000026928
      8        1           0.000057120   -0.000040340    0.000026928
 -------------------------------------------------------------------
 Cartesian Forces:  Max     0.000221461 RMS     0.000096408
 Force constants in Cartesian coordinates: 
                1             2             3             4             5 
      1  0.599465D+00
      2  0.000000D+00  0.599464D+00
      3  0.000000D+00  0.000000D+00  0.395262D+00
      4 -0.468484D-01 -0.236820D-01 -0.770580D-02  0.440099D-01
      5 -0.236822D-01 -0.299249D+00 -0.828002D-01  0.250278D-01  0.310747D+00
      6 -0.627952D-02 -0.674686D-01 -0.666284D-01  0.782701D-02  0.841023D-01
      7 -0.215640D+00  0.121134D+00 -0.678542D-01  0.351141D-02 -0.374923D-02
      8  0.121134D+00 -0.130458D+00  0.480735D-01  0.210187D-01 -0.113062D-01
      9 -0.552895D-01  0.391725D-01 -0.666285D-01  0.829014D-02 -0.412092D-02
     10 -0.256658D+00 -0.974517D-01  0.755598D-01 -0.123849D-03  0.165042D-02
     11 -0.974519D-01 -0.894390D-01  0.347264D-01 -0.231176D-01 -0.767091D-02
     12  0.615690D-01  0.282958D-01 -0.666281D-01 -0.890800D-02 -0.252109D-02
     13 -0.882808D-01  0.000000D+00  0.000000D+00 -0.128583D-02  0.647667D-03
     14  0.000000D+00 -0.882805D-01  0.000000D+00  0.647743D-03  0.561747D-02
     15  0.000000D+00  0.000000D+00 -0.158510D+00  0.402903D-03  0.433460D-02
     16 -0.281162D-03  0.551382D-03 -0.189432D-03  0.431887D-03  0.641436D-04
     17  0.551137D-03  0.558941D-02 -0.203975D-02  0.640330D-04  0.111447D-02
     18 -0.293462D-02 -0.315358D-01 -0.122895D-01  0.196788D-03  0.211689D-02
     19  0.459922D-02  0.226646D-02  0.186103D-02  0.247144D-03  0.265672D-03
     20  0.226632D-02  0.709085D-03  0.855690D-03  0.784373D-03  0.278635D-03
     21  0.287782D-01  0.132265D-01 -0.122893D-01  0.342985D-03 -0.592533D-03
     22  0.364435D-02 -0.281753D-02 -0.167174D-02  0.579903D-04 -0.224184D-03
     23 -0.281777D-02  0.166394D-02  0.118379D-02 -0.742835D-03  0.468131D-03
     24 -0.258435D-01  0.183093D-01 -0.122894D-01 -0.445991D-03 -0.519079D-03
                6             7             8             9            10 
      6  0.821124D-01
      7  0.227067D-02  0.222388D+00
      8  0.897510D-02 -0.128015D+00  0.132369D+00
      9  0.432021D-02  0.689212D-01 -0.488295D-01  0.821124D-01
     10 -0.576247D-03 -0.150797D-01 -0.102852D-01  0.663733D-02  0.265738D+00
     11  0.923994D-02  0.144828D-01  0.728493D-02 -0.645401D-02  0.102987D+00
     12  0.432021D-02 -0.771390D-02 -0.511901D-02  0.432021D-02 -0.767482D-01
     13 -0.321532D-02  0.333080D-02 -0.331301D-02 -0.283226D-01  0.445269D-02
     14 -0.345604D-01 -0.331314D-02  0.100099D-02  0.200646D-01  0.266536D-02
     15 -0.197938D-01  0.355239D-02 -0.251624D-02 -0.197937D-01 -0.395537D-02
     16  0.158733D-03 -0.183920D-03 -0.535498D-03 -0.743500D-03 -0.531351D-04
     17  0.170302D-02 -0.167963D-04  0.709700D-03  0.680499D-03  0.160025D-03
     18 -0.630232D-02 -0.684641D-03  0.000000D+00  0.985364D-03  0.672531D-03
     19 -0.217580D-03  0.784327D-03  0.323484D-03 -0.888483D-03  0.999328D-03
     20 -0.984139D-03 -0.195167D-03 -0.258206D-03  0.475756D-03  0.263468D-03
     21  0.985364D-03 -0.226540D-03  0.645779D-03  0.986349D-03 -0.193167D-02
     22  0.322244D-04  0.888324D-03 -0.327557D-03  0.139550D-02  0.725445D-03
     23 -0.100733D-02 -0.327667D-03  0.658036D-03 -0.988978D-03  0.104757D-04
     24  0.986349D-03  0.173488D-02 -0.122887D-02 -0.630232D-02  0.341656D-03
               11            12            13            14            15 
     11  0.890196D-01
     12 -0.352727D-01  0.821124D-01
     13  0.266548D-02  0.315376D-01  0.683163D+00
     14 -0.120986D-03  0.144956D-01  0.000000D+00  0.683164D+00
     15 -0.181851D-02 -0.197936D-01  0.000000D+00  0.000000D+00  0.493564D+00
     16  0.678676D-03  0.856258D-03 -0.588367D-01 -0.265832D-01 -0.986817D-02
     17  0.579257D-03  0.531570D-03 -0.265830D-01 -0.342084D+00 -0.106052D+00
     18 -0.126700D-03  0.986349D-03 -0.104239D-01 -0.112025D+00 -0.918913D-01
     19  0.263579D-03 -0.155423D-02 -0.294294D+00 -0.109358D+00  0.967775D-01
     20  0.547032D-03 -0.714045D-03 -0.109358D+00 -0.106627D+00  0.444797D-01
     21 -0.888020D-03 -0.630232D-02  0.102228D+00  0.469849D-01 -0.918910D-01
     22 -0.508226D-03  0.961079D-03 -0.248250D+00  0.135941D+00 -0.869094D-01
     23 -0.199666D-03  0.303640D-03  0.135941D+00 -0.152670D+00  0.615720D-01
     24  0.593300D-03  0.985364D-03 -0.918044D-01  0.650397D-01 -0.918912D-01
               16            17            18            19            20 
     16  0.554397D-01
     17  0.286372D-01  0.360561D+00
     18  0.107406D-01  0.115435D+00  0.991015D-01
     19 -0.693897D-03  0.823354D-03 -0.405386D-03  0.309081D+00
     20 -0.295765D-01 -0.107994D-01  0.132194D-01  0.117803D+00  0.106919D+00
     21 -0.126055D-01 -0.400026D-02  0.470495D-02 -0.105340D+00 -0.484160D-01
     22  0.417745D-02 -0.363582D-02  0.283844D-02 -0.207235D-01  0.180124D-01
     23  0.267641D-01 -0.156708D-01  0.129168D-01 -0.123875D-01  0.923021D-02
     24  0.116510D-01 -0.625860D-02  0.470495D-02  0.976708D-02 -0.891657D-02
               21            22            23            24 
     21  0.991015D-01
     22 -0.112456D-01  0.259480D+00
     23 -0.696075D-02 -0.146440D+00  0.156521D+00
     24  0.470495D-02  0.945995D-01 -0.670193D-01  0.991015D-01
 Force constants in internal coordinates: 
                1             2             3             4             5 
      1  0.340666D+00
[...]
      4        1          -0.000000030    0.000000034    0.000000005
      5        7           0.000000000    0.000000000    0.000000007
      6        1          -0.000000041   -0.000000009    0.000000002
      7        1           0.000000029   -0.000000031    0.000000002
      8        1           0.000000013    0.000000041    0.000000002
 -------------------------------------------------------------------
 Cartesian Forces:  Max     0.000000045 RMS     0.000000023
 Force constants in Cartesian coordinates: 
                1             2             3             4             5 
      1  0.598600D+00
      2  0.000000D+00  0.598599D+00
      3  0.000000D+00  0.000000D+00  0.395245D+00
      4 -0.469107D-01 -0.236195D-01 -0.768559D-02  0.440763D-01
      5 -0.236196D-01 -0.298620D+00 -0.825744D-01  0.249644D-01  0.310112D+00
      6 -0.625916D-02 -0.672431D-01 -0.666276D-01  0.780687D-02  0.838783D-01
      7 -0.215237D+00  0.120803D+00 -0.676687D-01  0.350735D-02 -0.374367D-02
      8  0.120803D+00 -0.130293D+00  0.479431D-01  0.209981D-01 -0.112978D-01
      9 -0.551044D-01  0.390421D-01 -0.666277D-01  0.828184D-02 -0.411684D-02
     10 -0.256148D+00 -0.971835D-01  0.753541D-01 -0.125156D-03  0.164645D-02
     11 -0.971836D-01 -0.893825D-01  0.346310D-01 -0.230953D-01 -0.766534D-02
     12  0.613635D-01  0.282006D-01 -0.666273D-01 -0.889913D-02 -0.251844D-02
     13 -0.882620D-01  0.000000D+00  0.000000D+00 -0.128509D-02  0.646868D-03
     14  0.000000D+00 -0.882617D-01  0.000000D+00  0.647039D-03  0.560930D-02
     15  0.000000D+00  0.000000D+00 -0.158500D+00  0.402340D-03  0.432719D-02
     16 -0.281125D-03  0.550966D-03 -0.189812D-03  0.432136D-03  0.642226D-04
     17  0.550811D-03  0.558648D-02 -0.204330D-02  0.641258D-04  0.111562D-02
     18 -0.293394D-02 -0.315305D-01 -0.122877D-01  0.196744D-03  0.211583D-02
     19  0.459671D-02  0.226531D-02  0.186429D-02  0.247282D-03  0.265502D-03
     20  0.226527D-02  0.708700D-03  0.857135D-03  0.784206D-03  0.278358D-03
     21  0.287733D-01  0.132244D-01 -0.122874D-01  0.342412D-03 -0.592563D-03
     22  0.364248D-02 -0.281611D-02 -0.167463D-02  0.581131D-04 -0.224082D-03
     23 -0.281625D-02  0.166291D-02  0.118589D-02 -0.742763D-03  0.467746D-03
     24 -0.258393D-01  0.183061D-01 -0.122875D-01 -0.445427D-03 -0.519201D-03
                6             7             8             9            10 
      6  0.821063D-01
      7  0.226854D-02  0.221983D+00
      8  0.896610D-02 -0.127679D+00  0.132205D+00
      9  0.431620D-02  0.687373D-01 -0.487001D-01  0.821063D-01
     10 -0.575635D-03 -0.150679D-01 -0.102737D-01  0.663060D-02  0.265223D+00
     11  0.923070D-02  0.144681D-01  0.727744D-02 -0.644766D-02  0.102714D+00
     12  0.431620D-02 -0.770620D-02 -0.511386D-02  0.431620D-02 -0.765442D-01
     13 -0.321392D-02  0.332551D-02 -0.330882D-02 -0.283087D-01  0.444610D-02
     14 -0.345436D-01 -0.330886D-02  0.998859D-03  0.200550D-01  0.266193D-02
     15 -0.197817D-01  0.354626D-02 -0.251205D-02 -0.197816D-01 -0.394867D-02
     16  0.158605D-03 -0.183948D-03 -0.535235D-03 -0.743014D-03 -0.533181D-04
     17  0.170239D-02 -0.165311D-04  0.709588D-03  0.680839D-03  0.159747D-03
     18 -0.629920D-02 -0.684380D-03  0.000000D+00  0.984482D-03  0.672355D-03
     19 -0.218116D-03  0.783994D-03  0.323675D-03 -0.888595D-03  0.100032D-02
     20 -0.983888D-03 -0.195006D-03 -0.258135D-03  0.475168D-03  0.263820D-03
     21  0.984482D-03 -0.226927D-03  0.645352D-03  0.985393D-03 -0.193073D-02
     22  0.327901D-04  0.889170D-03 -0.327994D-03  0.139501D-02  0.725126D-03
     23 -0.100713D-02 -0.328091D-03  0.658583D-03 -0.988551D-03  0.103810D-04
     24  0.985393D-03  0.173399D-02 -0.122830D-02 -0.629920D-02  0.341968D-03
               11            12            13            14            15 
     11  0.889653D-01
     12 -0.351782D-01  0.821063D-01
     13  0.266195D-02  0.315223D-01  0.682859D+00
     14 -0.121818D-03  0.144884D-01  0.000000D+00  0.682860D+00
     15 -0.181529D-02 -0.197816D-01  0.000000D+00  0.000000D+00  0.493483D+00
     16  0.678428D-03  0.855805D-03 -0.588547D-01 -0.265581D-01 -0.985829D-02
     17  0.579178D-03  0.531962D-03 -0.265579D-01 -0.341868D+00 -0.105959D+00
     18 -0.126151D-03  0.985393D-03 -0.104137D-01 -0.111929D+00 -0.918795D-01
     19  0.263917D-03 -0.155362D-02 -0.294115D+00 -0.109269D+00  0.966920D-01
     20  0.547430D-03 -0.713840D-03 -0.109269D+00 -0.106608D+00  0.444418D-01
     21 -0.887528D-03 -0.629920D-02  0.102140D+00  0.469459D-01 -0.918792D-01
     22 -0.508323D-03  0.961131D-03 -0.248115D+00  0.135827D+00 -0.868339D-01
     23 -0.199486D-03  0.303050D-03  0.135827D+00 -0.152608D+00  0.615170D-01
     24  0.592819D-03  0.984482D-03 -0.917266D-01  0.649831D-01 -0.918794D-01
               16            17            18            19            20 
     16  0.554590D-01
     17  0.286111D-01  0.360339D+00
     18  0.107308D-01  0.115342D+00  0.990895D-01
     19 -0.693558D-03  0.823027D-03 -0.405734D-03  0.308897D+00
     20 -0.295668D-01 -0.107965D-01  0.132154D-01  0.117711D+00  0.106901D+00
     21 -0.126018D-01 -0.399890D-02  0.470351D-02 -0.105255D+00 -0.483779D-01
     22  0.417565D-02 -0.363427D-02  0.283776D-02 -0.207172D-01  0.180061D-01
     23  0.267556D-01 -0.156657D-01  0.129129D-01 -0.123837D-01  0.922712D-02
     24  0.116477D-01 -0.625633D-02  0.470351D-02  0.976406D-02 -0.891405D-02
               21            22            23            24 
     21  0.990895D-01
     22 -0.112420D-01  0.259341D+00
     23 -0.695908D-02 -0.146323D+00  0.156457D+00
     24  0.470351D-02  0.945238D-01 -0.669641D-01  0.990895D-01
 Red2BG is reusing G-inverse.
 Force constants in internal coordinates: 
                1             2             3             4             5 
      1  0.339953D+00
      2  0.788499D-03  0.339953D+00
      3  0.788493D-03  0.788469D-03  0.339953D+00
      4  0.246466D-02  0.246463D-02  0.246478D-02  0.267696D+00
      5 -0.150457D-02  0.264069D-03  0.263560D-03  0.531093D-02  0.406530D+00
      6  0.264116D-03  0.263562D-03 -0.150448D-02  0.531094D-02  0.138458D-02
      7  0.263541D-03 -0.150452D-02  0.264104D-03  0.531089D-02  0.138456D-02
      8  0.335225D-02  0.335141D-02 -0.139453D-02 -0.255334D-01 -0.625687D-05
      9  0.335138D-02 -0.139460D-02  0.335236D-02 -0.255335D-01 -0.578107D-05
     10  0.158947D-02 -0.357911D-02 -0.357849D-02  0.267790D-01  0.262876D-02
     11 -0.139461D-02  0.335228D-02  0.335151D-02 -0.255335D-01  0.909185D-03
     12 -0.357841D-02  0.158945D-02 -0.357907D-02  0.267789D-01 -0.178549D-02
     13 -0.357908D-02 -0.357841D-02  0.158922D-02  0.267791D-01 -0.178418D-02
     14  0.685984D-03  0.263406D-04  0.254941D-04  0.142682D-01 -0.467786D-02
     15  0.262864D-04  0.254375D-04  0.686022D-03  0.142683D-01 -0.387475D-02
     16  0.254528D-04  0.685981D-03  0.264132D-04  0.142682D-01 -0.387364D-02
     17 -0.356716D-03 -0.808335D-04 -0.356488D-03 -0.153560D-01  0.665812D-02
     18 -0.356422D-03 -0.356729D-03 -0.808956D-04 -0.153560D-01  0.666553D-02
     19 -0.808269D-04 -0.356442D-03 -0.356804D-03 -0.153560D-01  0.499395D-04
     20  0.000000D+00 -0.284504D-02  0.284521D-02  0.000000D+00  0.537460D-05
     21  0.331852D-04 -0.291264D-02  0.287889D-02  0.000000D+00  0.262917D-02
     22 -0.344392D-04 -0.287897D-02  0.291280D-02  0.000000D+00 -0.262865D-02
     23  0.287893D-02  0.331907D-04 -0.291263D-02  0.000000D+00  0.479441D-03
     24  0.291284D-02 -0.344154D-04 -0.287894D-02  0.000000D+00  0.310324D-02
     25  0.284521D-02  0.000000D+00 -0.284503D-02  0.000000D+00 -0.215458D-02
     26 -0.287895D-02  0.291286D-02 -0.343846D-04  0.000000D+00 -0.470008D-03
     27 -0.284504D-02  0.284525D-02  0.000000D+00  0.000000D+00  0.215379D-02
     28 -0.291267D-02  0.287893D-02  0.332120D-04  0.000000D+00 -0.310403D-02
                6             7             8             9            10 
      6  0.406529D+00
      7  0.138458D-02  0.406529D+00
      8  0.909103D-03 -0.585392D-05  0.493305D-01
      9 -0.638331D-05  0.909154D-03  0.114152D-01  0.493305D-01
     10 -0.178545D-02 -0.178409D-02 -0.431728D-01 -0.431694D-01  0.126308D+00
     11 -0.594544D-05 -0.630460D-05  0.114152D-01  0.114152D-01  0.106612D-01
     12 -0.178408D-02  0.262885D-02 -0.431694D-01  0.106611D-01 -0.234673D-01
     13  0.262901D-02 -0.178551D-02  0.106612D-01 -0.431728D-01 -0.234675D-01
     14 -0.387379D-02 -0.387480D-02 -0.391167D-02 -0.391187D-02  0.160564D-01
     15 -0.467793D-02 -0.387373D-02  0.302434D-02 -0.391171D-02 -0.551107D-02
     16 -0.387485D-02 -0.467785D-02 -0.391187D-02  0.302435D-02 -0.551206D-02
     17  0.666566D-02  0.499750D-04  0.812106D-03  0.354107D-02 -0.464053D-02
     18  0.500313D-04  0.665818D-02  0.354105D-02  0.811895D-03 -0.463983D-02
     19  0.665826D-02  0.666558D-02  0.811920D-03  0.812151D-03  0.386335D-02
     20 -0.215460D-02  0.215382D-02 -0.531928D-02  0.531769D-02  0.183665D-05
     21  0.479429D-03 -0.310406D-02 -0.489221D-02  0.446393D-02  0.132167D-02
     22  0.310328D-02 -0.470032D-03 -0.446551D-02  0.489103D-02 -0.131822D-02
     23 -0.310407D-02  0.262922D-02  0.446394D-02  0.427076D-03  0.701601D-02
     24 -0.470036D-03 -0.262866D-02  0.489101D-02 -0.426694D-03  0.833584D-02
     25  0.215382D-02  0.536493D-05  0.531771D-02  0.000000D+00  0.569596D-02
     26 -0.262868D-02  0.310327D-02 -0.426712D-03 -0.446554D-02 -0.701633D-02
     27  0.534979D-05 -0.215461D-02  0.000000D+00 -0.531931D-02 -0.569649D-02
     28  0.262921D-02  0.479414D-03  0.427055D-03 -0.489221D-02 -0.833638D-02
               11            12            13            14            15 
     11  0.493305D-01
     12 -0.431728D-01  0.126308D+00
     13 -0.431693D-01 -0.234676D-01  0.126308D+00
     14  0.302433D-02 -0.551108D-02 -0.551200D-02  0.947634D-01
     15 -0.391191D-02 -0.551209D-02  0.160565D-01 -0.178727D-01  0.947636D-01
     16 -0.391174D-02  0.160565D-01 -0.551102D-02 -0.178726D-01 -0.178728D-01
     17  0.811947D-03  0.386340D-02 -0.463995D-02 -0.383671D-01 -0.383676D-01
     18  0.812138D-03 -0.464056D-02  0.386335D-02 -0.383675D-01  0.132172D-01
     19  0.354113D-02 -0.463984D-02 -0.464067D-02  0.132172D-01 -0.383671D-01
     20  0.000000D+00 -0.569661D-02  0.569605D-02  0.000000D+00 -0.250423D-02
     21  0.427060D-03 -0.833646D-02  0.701608D-02  0.384009D-02  0.133593D-02
     22 -0.426683D-03 -0.701642D-02  0.833586D-02 -0.384068D-02  0.517666D-02
     23 -0.489220D-02  0.132171D-02 -0.833648D-02  0.133592D-02 -0.517646D-02
     24 -0.446551D-02 -0.131815D-02 -0.701645D-02  0.517658D-02 -0.133630D-02
     25 -0.531925D-02  0.189964D-05 -0.569667D-02 -0.250419D-02  0.250443D-02
     26  0.489098D-02  0.833582D-02 -0.131815D-02 -0.133630D-02 -0.384075D-02
     27  0.531767D-02  0.569597D-02  0.187559D-05  0.250437D-02  0.000000D+00
     28  0.446393D-02  0.701601D-02  0.132166D-02 -0.517641D-02  0.384014D-02
               16            17            18            19            20 
     16  0.947634D-01
     17  0.132172D-01  0.508885D-01
     18 -0.383671D-01  0.873571D-02  0.508885D-01
     19 -0.383675D-01  0.873568D-02  0.873569D-02  0.508885D-01
     20  0.250441D-02 -0.665257D-02  0.665299D-02  0.000000D+00  0.134374D-01
     21 -0.517641D-02  0.559492D-02  0.529110D-03 -0.612361D-02  0.322652D-02
     22 -0.133629D-02 -0.529014D-03 -0.559451D-02  0.612385D-02  0.322664D-02
     23  0.384013D-02 -0.612358D-02  0.559492D-02  0.529114D-03  0.381371D-02
     24 -0.384070D-02  0.612390D-02 -0.528964D-03 -0.559449D-02 -0.639718D-02
     25  0.000000D+00  0.000000D+00 -0.665258D-02  0.665298D-02 -0.639707D-02
     26  0.517659D-02 -0.559447D-02  0.612389D-02 -0.528936D-03  0.381383D-02
     27 -0.250423D-02  0.665302D-02  0.000000D+00 -0.665254D-02 -0.639706D-02
     28  0.133589D-02  0.529087D-03 -0.612361D-02  0.559493D-02 -0.639695D-02
               21            22            23            24            25 
     21  0.139221D-01
     22  0.346901D-02  0.139224D-01
     23 -0.663943D-02 -0.688192D-02  0.139222D-01
     24  0.405619D-02 -0.663955D-02  0.346900D-02  0.139224D-01
     25 -0.639695D-02  0.381382D-02  0.322652D-02  0.322664D-02  0.134374D-01
     26 -0.688191D-02 -0.663953D-02  0.405621D-02 -0.663953D-02 -0.639715D-02
     27  0.381371D-02 -0.639716D-02 -0.639693D-02  0.381384D-02 -0.639703D-02
     28 -0.663943D-02  0.405621D-02 -0.663942D-02 -0.688190D-02  0.381374D-02
               26            27            28 
     26  0.139223D-01
     27  0.322660D-02  0.134374D-01
     28  0.346897D-02  0.322650D-02  0.139221D-01
 Leave Link  716 at Thu Feb 26 00:57:05 2015, MaxMem= 1073741824 cpu:       0.1
 (Enter /apps/gaussian/g09_c01/g09/l9999.exe)
 1\1\GINC-CX1-25-1-2\Freq\RPBEPBE\Aug-CC-pVDZ\C1H6N1(1+)\JMF02\26-Feb-2
 015\0\\#p opt(VeryTight,CalcAll,Raman) Integral(Grid=UltraFine) PBEPBE
 /AUG-cc-pVDZ\\Autjob by noodles.sh | Great noodly basis sets\\1,1\C,-0
 .0000000526,0.0000000526,-0.8011082291\H,-0.0968539636,-1.0410163957,-
 1.1458166764\H,-0.8531197872,0.6043862241,-1.1458166764\H,0.9499735928
 ,0.4366303295,-1.1458166764\N,-0.0000000526,0.0000000526,0.7106873708\
 H,0.089023436,0.9564751789,1.0915899584\H,-0.8728435543,-0.4011409078,
 1.0915899584\H,0.7838199605,-0.5553341131,1.0915899584\\Version=EM64L-
 G09RevC.01\State=1-A\HF=-96.0914432\RMSD=8.557e-09\RMSF=2.284e-08\Zero
 Point=0.0769749\Thermal=0.0804639\Dipole=0.,0.,0.8602807\DipoleDeriv=0
 .083629,0.0000055,0.0000028,0.0000024,0.0836253,0.000003,-0.0000028,-0
 .0000026,0.4882478,0.1202811,-0.007616,0.0009499,-0.0076134,0.0391701,
 0.0101876,0.0032169,0.0345487,0.0553061,0.0660423,0.0389291,0.0083476,
 0.0389297,0.0934124,-0.005916,0.0283112,-0.0200596,0.0553067,0.0528554
 ,-0.0313174,-0.0092995,-0.0313157,0.1065993,-0.0042734,-0.0315264,-0.0
 144883,0.0553077,-0.1166833,0.000001,0.0000037,0.0000031,-0.1166867,0.
 0000031,-0.0000045,0.0000017,-0.2945247,0.2407431,0.0044835,0.0035281,
 0.0044834,0.2885046,0.0378837,0.00267,0.0286683,0.2134501,0.2804479,0.
 0184389,-0.0345736,0.0184391,0.2488013,-0.0158877,-0.026161,-0.0120217
 ,0.2134512,0.2726815,-0.0229232,0.0310442,-0.0229239,0.2565672,-0.0219
 973,0.023493,-0.016647,0.2134509\Polar=20.0206187,-0.0000132,20.020616
 3,0.0000236,-0.0000056,23.1845217\PolarDeriv=-0.9038492,-3.1647771,0.9
 038862,2.2409479,0.0000651,0.0000178,-3.1650656,0.903858,3.1651221,0.0
 000596,2.2408749,0.0001666,2.422551,-0.0001228,2.4226237,0.0001287,-0.
 0003041,-2.8560264,-0.2082732,-0.631962,-0.4642553,-0.8389727,-0.11395
 26,-0.2272416,-1.0457399,-0.4245427,-6.1784983,-0.1139037,-2.0531547,-
 2.4418054,-0.7907625,-0.0820734,-1.6672762,-0.1399484,-1.504385,-1.548
 0194,-3.994702,1.895327,-1.9254981,-1.6510917,0.5829164,-2.0008,2.1364
 231,-1.586964,2.0578909,0.5827145,-1.2414818,1.4174595,-1.3769893,0.42
 05612,-1.0809522,-1.232974,0.8735618,-1.5483423,5.0317132,1.6382751,1.
 5611624,-1.848538,-0.4688735,2.2281157,1.8111453,1.1828335,1.2188932,-
 0.4689538,-1.0439124,1.0240209,-1.5192058,-0.3383607,-0.9387263,1.3728
 69,0.6310487,-1.5482499,0.6273526,2.1944268,-0.6273745,-2.3360941,0.00
 00424,-0.0000699,2.1945076,-0.6274307,-2.1944165,-0.0001818,-2.3360851
 ,0.0001235,-1.9096046,-0.0000991,-1.9095165,-0.0000823,0.0001563,1.104
 0946,0.1987663,0.6505228,0.3259126,0.7959489,0.128039,0.2425452,0.8813
 773,0.3045514,4.7574638,0.1281628,2.1597329,2.6059308,0.5856234,0.0887
 444,1.5302383,0.148621,1.5971336,2.1320579,-3.9380364,-1.1865943,-1.20
 76519,1.9297429,0.526422,-2.3780196,-1.2835353,-0.9971373,-1.0815581,0
 .5265377,1.0260358,-1.0929448,1.3708425,0.364619,0.7449957,-1.4574693,
 -0.6698867,2.1321766,3.1871322,-1.3953336,1.4338209,1.7079775,-0.65461
 44,2.1354726,-1.5292447,1.2447215,-1.7445518,-0.6544814,1.2479509,-1.5
 129609,1.2173981,-0.4532925,0.8985705,1.3089001,-0.9273328,2.1322595\H
 yperPolar=0.4740813,1.6585722,-0.4735918,-1.6551847,-2.8095393,-0.0003
 78,-2.809504,0.0008249,-0.0001437,12.3541368\PG=C03 [C3(C1N1),X(H6)]\N
 Imag=0\\0.59859992,0.00000032,0.59859851,0.00000006,0.00000053,0.39524
 485,-0.04691069,-0.02361947,-0.00768559,0.04407630,-0.02361958,-0.2986
 1965,-0.08257439,0.02496439,0.31011157,-0.00625916,-0.06724308,-0.0666
 2765,0.00780687,0.08387830,0.08210631,-0.21523728,0.12080300,-0.067668
 74,0.00350735,-0.00374367,0.00226854,0.22198296,0.12080287,-0.13029307
 ,0.04794311,0.02099811,-0.01129785,0.00896610,-0.12767884,0.13220491,-
 0.05510442,0.03904211,-0.06662771,0.00828184,-0.00411684,0.00431620,0.
 06873731,-0.04870009,0.08210631,-0.25614779,-0.09718348,0.07535414,-0.
 00012516,0.00164645,-0.00057563,-0.01506794,-0.01027366,0.00663060,0.2
 6522254,-0.09718357,-0.08938250,0.03463095,-0.02309534,-0.00766534,0.0
 0923070,0.01446812,0.00727744,-0.00644766,0.10271446,0.08896532,0.0613
 6348,0.02820065,-0.06662733,-0.00889913,-0.00251844,0.00431620,-0.0077
 0620,-0.00511386,0.00431620,-0.07654417,-0.03517821,0.08210631,-0.0882
 6202,-0.00000036,0.00000062,-0.00128509,0.00064687,-0.00321392,0.00332
 551,-0.00330882,-0.02830866,0.00444610,0.00266195,0.03152234,0.6828590
 0,0.00000020,-0.08826172,0.00000066,0.00064704,0.00560930,-0.03454355,
 -0.00330886,0.00099886,0.02005499,0.00266193,-0.00012182,0.01448838,-0
 .00000010,0.68285961,0.00000003,0.00000022,-0.15850028,0.00040234,0.00
 432719,-0.01978173,0.00354626,-0.00251205,-0.01978161,-0.00394867,-0.0
 0181529,-0.01978159,0.00000042,0.00000053,0.49348277,-0.00028112,0.000
 55097,-0.00018981,0.00043214,0.00006422,0.00015860,-0.00018395,-0.0005
 3524,-0.00074301,-0.00005332,0.00067843,0.00085581,-0.05885466,-0.0265
 5811,-0.00985829,0.05545904,0.00055081,0.00558648,-0.00204330,0.000064
 13,0.00111562,0.00170239,-0.00001653,0.00070959,0.00068084,0.00015975,
 0.00057918,0.00053196,-0.02655792,-0.34186813,-0.10595895,0.02861114,0
 .36033926,-0.00293394,-0.03153054,-0.01228767,0.00019674,0.00211583,-0
 .00629920,-0.00068438,-0.00000026,0.00098448,0.00067235,-0.00012615,0.
 00098539,-0.01041369,-0.11192937,-0.09187950,0.01073076,0.11534208,0.0
 9908945,0.00459671,0.00226531,0.00186429,0.00024728,0.00026550,-0.0002
 1812,0.00078399,0.00032368,-0.00088860,0.00100032,0.00026392,-0.001553
 62,-0.29411465,-0.10926936,0.09669203,-0.00069356,0.00082303,-0.000405
 73,0.30889718,0.00226527,0.00070870,0.00085713,0.00078421,0.00027836,-
 0.00098389,-0.00019501,-0.00025813,0.00047517,0.00026382,0.00054743,-0
 .00071384,-0.10926923,-0.10660805,0.04444175,-0.02956679,-0.01079650,0
 .01321541,0.11771144,0.10690112,0.02877333,0.01322443,-0.01228739,0.00
 034241,-0.00059256,0.00098448,-0.00022693,0.00064535,0.00098539,-0.001
 93073,-0.00088753,-0.00629920,0.10214000,0.04694588,-0.09187924,-0.012
 60182,-0.00399890,0.00470351,-0.10525455,-0.04837793,0.09908945,0.0036
 4248,-0.00281611,-0.00167463,0.00005811,-0.00022408,0.00003279,0.00088
 917,-0.00032799,0.00139501,0.00072513,-0.00050832,0.00096113,-0.248114
 64,0.13582730,-0.08683389,0.00417565,-0.00363427,0.00283776,-0.0207171
 8,0.01800615,-0.01124201,0.25934123,-0.00281625,0.00166291,0.00118589,
 -0.00074276,0.00046775,-0.00100713,-0.00032809,0.00065858,-0.00098855,
 0.00001038,-0.00019949,0.00030305,0.13582739,-0.15260803,0.06151697,0.
 02675555,-0.01566571,0.01291294,-0.01238367,0.00922712,-0.00695908,-0.
 14632257,0.15645707,-0.02583935,0.01830605,-0.01228750,-0.00044543,-0.
 00051920,0.00098539,0.00173399,-0.00122830,-0.00629920,0.00034197,0.00
 059282,0.00098448,-0.09172659,0.06498307,-0.09187942,0.01164775,-0.006
 25633,0.00470351,0.00976406,-0.00891405,0.00470351,0.09452379,-0.06696
 415,0.09908945\\0.,0.,0.00000003,-0.00000004,0.,0.,0.00000001,0.000000
 04,0.,0.00000003,-0.00000003,0.,0.,0.,0.,0.00000004,0.,0.,-0.00000003,
 0.00000003,0.,-0.00000001,-0.00000004,0.\\\@


 OF ALL THE WONDERS OF THE UNIVERSE, THE GREATEST IS MAN.

                                    -- ARISTOTLE
 Job cpu time:  0 days  0 hours 13 minutes 29.1 seconds.
 File lengths (MBytes):  RWF=     11 Int=      0 D2E=      0 Chk=      2 Scr=      1
 Normal termination of Gaussian 09 at Thu Feb 26 00:57:05 2015.
