 Entering Gaussian System, Link 0=g03
 Input=MA_PBE1PBE_AUG-cc-pVTZ.com
 Output=MA_PBE1PBE_AUG-cc-pVTZ.log
 Initial command:
 /apps/gaussian/g09_c01/g09/l1.exe /tmp/pbs.8910302.cx1b/Gau-13228.inp -scrdir=/tmp/pbs.8910302.cx1b/
 Entering Link 1 = /apps/gaussian/g09_c01/g09/l1.exe PID=     13232.
  
 Copyright (c) 1988,1990,1992,1993,1995,1998,2003,2009,2011,
            Gaussian, Inc.  All Rights Reserved.
  
 This is part of the Gaussian(R) 09 program.  It is based on
 the Gaussian(R) 03 system (copyright 2003, Gaussian, Inc.),
 the Gaussian(R) 98 system (copyright 1998, Gaussian, Inc.),
 the Gaussian(R) 94 system (copyright 1995, Gaussian, Inc.),
 the Gaussian 92(TM) system (copyright 1992, Gaussian, Inc.),
 the Gaussian 90(TM) system (copyright 1990, Gaussian, Inc.),
 the Gaussian 88(TM) system (copyright 1988, Gaussian, Inc.),
 the Gaussian 86(TM) system (copyright 1986, Carnegie Mellon
 University), and the Gaussian 82(TM) system (copyright 1983,
 Carnegie Mellon University). Gaussian is a federally registered
 trademark of Gaussian, Inc.
  
 This software contains proprietary and confidential information,
 including trade secrets, belonging to Gaussian, Inc.
  
 This software is provided under written license and may be
 used, copied, transmitted, or stored only in accord with that
 written license.
  
 The following legend is applicable only to US Government
 contracts under FAR:
  
                    RESTRICTED RIGHTS LEGEND
  
 Use, reproduction and disclosure by the US Government is
 subject to restrictions as set forth in subparagraphs (a)
 and (c) of the Commercial Computer Software - Restricted
 Rights clause in FAR 52.227-19.
  
 Gaussian, Inc.
 340 Quinnipiac St., Bldg. 40, Wallingford CT 06492
  
  
 ---------------------------------------------------------------
 Warning -- This program may not be used in any manner that
 competes with the business of Gaussian, Inc. or will provide
 assistance to any competitor of Gaussian, Inc.  The licensee
 of this program is prohibited from giving any competitor of
 Gaussian, Inc. access to this program.  By using this program,
 the user acknowledges that Gaussian, Inc. is engaged in the
 business of creating and licensing software in the field of
 computational chemistry and represents and warrants to the
 licensee that it is not a competitor of Gaussian, Inc. and that
 it will not use this program in any manner prohibited above.
 ---------------------------------------------------------------
  

 Cite this work as:
 Gaussian 09, Revision C.01,
 M. J. Frisch, G. W. Trucks, H. B. Schlegel, G. E. Scuseria, 
 M. A. Robb, J. R. Cheeseman, G. Scalmani, V. Barone, B. Mennucci, 
 G. A. Petersson, H. Nakatsuji, M. Caricato, X. Li, H. P. Hratchian, 
 A. F. Izmaylov, J. Bloino, G. Zheng, J. L. Sonnenberg, M. Hada, 
 M. Ehara, K. Toyota, R. Fukuda, J. Hasegawa, M. Ishida, T. Nakajima, 
 Y. Honda, O. Kitao, H. Nakai, T. Vreven, J. A. Montgomery, Jr., 
 J. E. Peralta, F. Ogliaro, M. Bearpark, J. J. Heyd, E. Brothers, 
 K. N. Kudin, V. N. Staroverov, T. Keith, R. Kobayashi, J. Normand, 
 K. Raghavachari, A. Rendell, J. C. Burant, S. S. Iyengar, J. Tomasi, 
 M. Cossi, N. Rega, J. M. Millam, M. Klene, J. E. Knox, J. B. Cross, 
 V. Bakken, C. Adamo, J. Jaramillo, R. Gomperts, R. E. Stratmann, 
 O. Yazyev, A. J. Austin, R. Cammi, C. Pomelli, J. W. Ochterski, 
 R. L. Martin, K. Morokuma, V. G. Zakrzewski, G. A. Voth, 
 P. Salvador, J. J. Dannenberg, S. Dapprich, A. D. Daniels, 
 O. Farkas, J. B. Foresman, J. V. Ortiz, J. Cioslowski, 
 and D. J. Fox, Gaussian, Inc., Wallingford CT, 2010.
 
 ******************************************
 Gaussian 09:  EM64L-G09RevC.01 23-Sep-2011
                26-Feb-2015 
 ******************************************
 %Chk=MA_PBE1PBE_AUG-cc-pVTZ.chk
 %Mem=8Gb
 %nproc=8
 Will use up to    8 processors via shared memory.
 ----------------------------------------------------------------------
 #p opt(VeryTight,CalcAll,Raman) Integral(Grid=UltraFine) PBE1PBE/AUG-c
 c-pVTZ
 ----------------------------------------------------------------------
 1/7=1,10=4,14=-1,18=20,19=15,26=3,38=1/1,3;
 2/9=110,12=2,17=6,18=5,40=1/2;
 3/5=16,6=1,7=10,11=2,16=1,25=1,30=1,71=2,74=-13,75=-5/1,2,3;
 4//1;
 5/5=2,38=5/2;
 8/6=4,10=90,11=11/1;
 10/13=10,15=4/2;
 11/6=3,8=1,9=11,15=111,16=1/1,2,10;
 10/6=1/2;
 6/7=2,8=2,9=2,10=2,18=1,28=1/1;
 7/10=1,25=1/1,2,3,16;
 1/7=1,10=4,14=-1,18=20,19=15/3(3);
 2/9=110/2;
 7/8=1,9=1,25=1,44=-1/16;
 99//99;
 2/9=110/2;
 3/5=16,6=1,7=10,11=2,16=1,25=1,30=1,71=2,74=-13,75=-5/1,2,3;
 4/5=5,16=3/1;
 5/5=2,38=5/2;
 8/6=4,10=90,11=11/1;
 10/13=10,15=4/2;
 11/6=3,8=1,9=11,15=111,16=1/1,2,10;
 10/6=1/2;
 7/10=1,25=1/1,2,3,16;
 1/7=1,10=4,14=-1,18=20,19=15/3(-9);
 2/9=110/2;
 6/7=2,8=2,9=2,10=2,18=1,19=2,28=1/1;
 7/8=1,9=1,25=1,44=-1/16;
 99//99;
 Leave Link    1 at Thu Feb 26 00:52:51 2015, MaxMem= 1073741824 cpu:       0.3
 (Enter /apps/gaussian/g09_c01/g09/l101.exe)
 ----------------------------------------------
 Autjob by noodles.sh | Great noodly basis sets
 ----------------------------------------------
 Charge =  1 Multiplicity = 1
 Symbolic Z-Matrix:
 C                     0.        0.       -0.80446 
 H                    -0.09587  -1.03096  -1.1445 
 H                    -0.8449    0.59851  -1.1445 
 H                     0.94078   0.43245  -1.1445 
 N                     0.        0.        0.71256 
 H                     0.08865   0.95193   1.09076 
 H                    -0.86872  -0.39919   1.09076 
 H                     0.78007  -0.55274   1.09076 
 
 NAtoms=      8 NQM=        0 NQMF=       0 NMMI=      8 NMMIF=      0
                NMic=       0 NMicF=      0.
                    Isotopes and Nuclear Properties:
 (Nuclear quadrupole moments (NQMom) in fm**2, nuclear magnetic moments (NMagM)
  in nuclear magnetons)

  Atom         1           2           3           4           5           6           7           8
 IAtWgt=          12           1           1           1          14           1           1           1
 AtmWgt=  12.0000000   1.0078250   1.0078250   1.0078250  14.0030740   1.0078250   1.0078250   1.0078250
 NucSpn=           0           1           1           1           2           1           1           1
 AtZEff=   0.0000000   0.0000000   0.0000000   0.0000000   0.0000000   0.0000000   0.0000000   0.0000000
 NQMom=    0.0000000   0.0000000   0.0000000   0.0000000   2.0440000   0.0000000   0.0000000   0.0000000
 NMagM=    0.0000000   2.7928460   2.7928460   2.7928460   0.4037610   2.7928460   2.7928460   2.7928460
 Leave Link  101 at Thu Feb 26 00:52:52 2015, MaxMem= 1073741824 cpu:       0.9
 (Enter /apps/gaussian/g09_c01/g09/l103.exe)

 GradGradGradGradGradGradGradGradGradGradGradGradGradGradGradGradGradGrad
 Berny optimization.
 Initialization pass.
                           ----------------------------
                           !    Initial Parameters    !
                           ! (Angstroms and Degrees)  !
 --------------------------                            --------------------------
 ! Name  Definition              Value          Derivative Info.                !
 --------------------------------------------------------------------------------
 ! R1    R(1,2)                  1.0898         calculate D2E/DX2 analytically  !
 ! R2    R(1,3)                  1.0898         calculate D2E/DX2 analytically  !
 ! R3    R(1,4)                  1.0898         calculate D2E/DX2 analytically  !
 ! R4    R(1,5)                  1.517          calculate D2E/DX2 analytically  !
 ! R5    R(5,6)                  1.0281         calculate D2E/DX2 analytically  !
 ! R6    R(5,7)                  1.0281         calculate D2E/DX2 analytically  !
 ! R7    R(5,8)                  1.0281         calculate D2E/DX2 analytically  !
 ! A1    A(2,1,3)              110.7303         calculate D2E/DX2 analytically  !
 ! A2    A(2,1,4)              110.7304         calculate D2E/DX2 analytically  !
 ! A3    A(2,1,5)              108.1807         calculate D2E/DX2 analytically  !
 ! A4    A(3,1,4)              110.7303         calculate D2E/DX2 analytically  !
 ! A5    A(3,1,5)              108.1807         calculate D2E/DX2 analytically  !
 ! A6    A(4,1,5)              108.1807         calculate D2E/DX2 analytically  !
 ! A7    A(1,5,6)              111.5829         calculate D2E/DX2 analytically  !
 ! A8    A(1,5,7)              111.583          calculate D2E/DX2 analytically  !
 ! A9    A(1,5,8)              111.583          calculate D2E/DX2 analytically  !
 ! A10   A(6,5,7)              107.2794         calculate D2E/DX2 analytically  !
 ! A11   A(6,5,8)              107.2794         calculate D2E/DX2 analytically  !
 ! A12   A(7,5,8)              107.2794         calculate D2E/DX2 analytically  !
 ! D1    D(2,1,5,6)            179.9926         calculate D2E/DX2 analytically  !
 ! D2    D(2,1,5,7)            -60.0075         calculate D2E/DX2 analytically  !
 ! D3    D(2,1,5,8)             59.9926         calculate D2E/DX2 analytically  !
 ! D4    D(3,1,5,6)            -60.0075         calculate D2E/DX2 analytically  !
 ! D5    D(3,1,5,7)             59.9925         calculate D2E/DX2 analytically  !
 ! D6    D(3,1,5,8)            179.9926         calculate D2E/DX2 analytically  !
 ! D7    D(4,1,5,6)             59.9925         calculate D2E/DX2 analytically  !
 ! D8    D(4,1,5,7)            179.9925         calculate D2E/DX2 analytically  !
 ! D9    D(4,1,5,8)            -60.0075         calculate D2E/DX2 analytically  !
 --------------------------------------------------------------------------------
 Trust Radius=3.00D-01 FncErr=1.00D-07 GrdErr=1.00D-06
 Number of steps in this run=     38 maximum allowed number of steps=    100.
 GradGradGradGradGradGradGradGradGradGradGradGradGradGradGradGradGradGrad

 Leave Link  103 at Thu Feb 26 00:52:52 2015, MaxMem= 1073741824 cpu:       0.0
 (Enter /apps/gaussian/g09_c01/g09/l202.exe)
                          Input orientation:                          
 ---------------------------------------------------------------------
 Center     Atomic      Atomic             Coordinates (Angstroms)
 Number     Number       Type             X           Y           Z
 ---------------------------------------------------------------------
      1          6           0        0.000000    0.000000   -0.804455
      2          1           0       -0.095874   -1.030964   -1.144495
      3          1           0       -0.844904    0.598511   -1.144495
      4          1           0        0.940777    0.432453   -1.144495
      5          7           0        0.000000    0.000000    0.712562
      6          1           0        0.088649    0.951929    1.090759
      7          1           0       -0.868719   -0.399192    1.090759
      8          1           0        0.780070   -0.552736    1.090759
 ---------------------------------------------------------------------
                    Distance matrix (angstroms):
                    1          2          3          4          5
     1  C    0.000000
     2  H    1.089819   0.000000
     3  H    1.089819   1.793386   0.000000
     4  H    1.089818   1.793386   1.793386   0.000000
     5  N    1.517017   2.126203   2.126203   2.126203   0.000000
     6  H    2.122702   2.993706   2.448017   2.447925   1.028134
     7  H    2.122702   2.448017   2.447925   2.993705   1.028134
     8  H    2.122702   2.447926   2.993705   2.448016   1.028134
                    6          7          8
     6  H    0.000000
     7  H    1.655923   0.000000
     8  H    1.655923   1.655923   0.000000
 Stoichiometry    CH6N(1+)
 Framework group  C3[C3(CN),X(H6)]
 Deg. of freedom     6
 Full point group                 C3      NOp   3
 Largest Abelian subgroup         C1      NOp   1
 Largest concise Abelian subgroup C1      NOp   1
                         Standard orientation:                         
 ---------------------------------------------------------------------
 Center     Atomic      Atomic             Coordinates (Angstroms)
 Number     Number       Type             X           Y           Z
 ---------------------------------------------------------------------
      1          6           0        0.000000    0.000000   -0.804455
      2          1           0        1.030964   -0.095874   -1.144495
      3          1           0       -0.598511   -0.844904   -1.144495
      4          1           0       -0.432453    0.940778   -1.144495
      5          7           0        0.000000    0.000000    0.712562
      6          1           0       -0.951929    0.088649    1.090759
      7          1           0        0.399192   -0.868719    1.090759
      8          1           0        0.552737    0.780070    1.090759
 ---------------------------------------------------------------------
 Rotational constants (GHZ):     84.1605103     19.8694623     19.8694623
 Leave Link  202 at Thu Feb 26 00:52:52 2015, MaxMem= 1073741824 cpu:       0.0
 (Enter /apps/gaussian/g09_c01/g09/l301.exe)
 Standard basis: Aug-CC-pVTZ (5D, 7F)
 Ernie: Thresh=  0.10000D-02 Tol=  0.10000D-05 Strict=F.
 Ernie:  6 primitive shells out of 126 were deleted.
 There are   230 symmetry adapted basis functions of A   symmetry.
 Integral buffers will be    131072 words long.
 Raffenetti 2 integral format.
 Two-electron integral symmetry is turned on.
   230 basis functions,   306 primitive gaussians,   260 cartesian basis functions
     9 alpha electrons        9 beta electrons
       nuclear repulsion energy        47.5846100594 Hartrees.
 IExCor= 1009 DFT=T Ex+Corr=PBE1PBE ExCW=0 ScaHFX=  0.250000
 ScaDFX=  0.750000  0.750000  1.000000  1.000000 ScalE2=  1.000000  1.000000
 IRadAn=      5 IRanWt=     -1 IRanGd=            0 ICorTp=0
 NAtoms=    8 NActive=    8 NUniq=    4 SFac= 4.00D+00 NAtFMM=   60 NAOKFM=F Big=F
 Leave Link  301 at Thu Feb 26 00:52:52 2015, MaxMem= 1073741824 cpu:       0.3
 (Enter /apps/gaussian/g09_c01/g09/l302.exe)
 NPDir=0 NMtPBC=     1 NCelOv=     1 NCel=       1 NClECP=     1 NCelD=      1
         NCelK=      1 NCelE2=     1 NClLst=     1 CellRange=     0.0.
 One-electron integrals computed using PRISM.
 NBasis=   230 RedAO= T  NBF=   230
 NBsUse=   230 1.00D-06 NBFU=   230
 Precomputing XC quadrature grid using
 IXCGrd= 2 IRadAn=           5 IRanWt=          -1 IRanGd=           0 AccXCQ= 0.00D+00.
 NRdTot=     686 NPtTot=      184910 NUsed=      189829 NTot=      189861
 NSgBfM=   260   260   260   260   260 NAtAll=     8     8.
 Leave Link  302 at Thu Feb 26 00:52:52 2015, MaxMem= 1073741824 cpu:       3.1
 (Enter /apps/gaussian/g09_c01/g09/l303.exe)
 DipDrv:  MaxL=1.
 Leave Link  303 at Thu Feb 26 00:52:52 2015, MaxMem= 1073741824 cpu:       0.3
 (Enter /apps/gaussian/g09_c01/g09/l401.exe)
 Harris functional with IExCor= 1009 diagonalized for initial guess.
 ExpMin= 2.53D-02 ExpMax= 1.14D+04 ExpMxC= 3.89D+02 IAcc=3 IRadAn=         5 AccDes= 0.00D+00
 HarFok:  IExCor= 1009 AccDes= 0.00D+00 IRadAn=         5 IDoV= 1
 ScaDFX=  1.000000  1.000000  1.000000  1.000000
 FoFCou: FMM=F IPFlag=           0 FMFlag=      100000 FMFlg1=           0
         NFxFlg=           0 DoJE=T BraDBF=F KetDBF=T FulRan=T
         Omega=  0.000000  0.000000  1.000000  0.000000  0.000000 ICntrl=     500 IOpCl=  0
         NMat0=    1 NMatS0=    1 NMatT0=    0 NMatD0=    1 NMtDS0=    0 NMtDT0=    0
         I1Cent=           4 NGrid=           0.
 Petite list used in FoFCou.
 DSYEVD returned Info=       27026 IAlg= 4 N=   230 NDim=   230 NE2=     4667847 trying DSYEV.
 Harris En= -96.2279084784203    
 Initial guess orbital symmetries:
       Occupied  (A) (A) (A) (A) (E) (E) (A) (E) (E)
       Virtual   (A) (A) (E) (E) (A) (E) (E) (A) (E) (E) (A) (E)
                 (E) (A) (E) (E) (E) (E) (A) (E) (E) (A) (E) (E)
                 (A) (A) (A) (E) (E) (A) (E) (E) (E) (E) (A) (E)
                 (E) (A) (A) (E) (E) (A) (E) (E) (E) (E) (A) (E)
                 (E) (A) (A) (E) (E) (E) (E) (A) (A) (E) (E) (A)
                 (E) (E) (A) (E) (E) (A) (A) (E) (E) (A) (E) (E)
                 (A) (E) (E) (E) (E) (A) (E) (E) (E) (E) (E) (E)
                 (A) (E) (E) (A) (A) (E) (E) (A) (E) (E) (E) (E)
                 (A) (E) (E) (A) (A) (E) (E) (A) (A) (E) (E) (A)
                 (E) (E) (A) (E) (E) (A) (E) (E) (A) (E) (E) (A)
                 (E) (E) (E) (E) (A) (E) (E) (A) (E) (E) (A) (A)
                 (E) (E) (A) (A) (E) (E) (A) (E) (E) (A) (E) (E)
                 (A) (E) (E) (A) (E) (E) (E) (E) (A) (E) (E) (A)
                 (E) (E) (A) (E) (E) (E) (E) (A) (A) (E) (E) (A)
                 (A) (E) (E) (A) (E) (E) (E) (E) (E) (E) (A) (A)
                 (E) (E) (E) (E) (A) (A) (E) (E) (A) (E) (E) (A)
                 (A) (E) (E) (A) (E) (E) (E) (E) (A) (A) (E) (E)
                 (A) (E) (E) (A) (E) (E) (A) (E) (E) (A) (A) (E)
                 (E) (E) (E) (A) (A)
 The electronic state of the initial guess is 1-A.
 Leave Link  401 at Thu Feb 26 00:52:53 2015, MaxMem= 1073741824 cpu:       5.3
 (Enter /apps/gaussian/g09_c01/g09/l502.exe)
 Closed shell SCF:
 Requested convergence on RMS density matrix=1.00D-08 within 128 cycles.
 Requested convergence on MAX density matrix=1.00D-06.
 Requested convergence on             energy=1.00D-06.
 No special actions if energy rises.
 Using DIIS extrapolation, IDIIS=  1040.
 Integral symmetry usage will be decided dynamically.
       189744 words used for storage of precomputed grid.
 Keep R1 ints in memory in canonical form, NReq=584943911.
 IEnd=      414822 IEndB=      414822 NGot=  1073741824 MDV=   497772060
 LenX=   497772060 LenY=   497704019
 Symmetry not used in FoFDir.
 MinBra= 0 MaxBra= 3 Meth= 1.
 IRaf=       0 NMat=   1 IRICut=       1 DoRegI=T DoRafI=F ISym2E= 0 JSym2E=0.

 Cycle   1  Pass 1  IDiag  1:
 E= -96.0971537026161    
 DIIS: error= 1.90D-02 at cycle   1 NSaved=   1.
 NSaved= 1 IEnMin= 1 EnMin= -96.0971537026161     IErMin= 1 ErrMin= 1.90D-02
 ErrMax= 1.90D-02 EMaxC= 1.00D-01 BMatC= 4.80D-02 BMatP= 4.80D-02
 IDIUse=3 WtCom= 8.10D-01 WtEn= 1.90D-01
 Coeff-Com:  0.100D+01
 Coeff-En:   0.100D+01
 Coeff:      0.100D+01
 Gap=     0.392 Goal=   None    Shift=    0.000
 DSYEVD returned Info=       27026 IAlg= 4 N=   230 NDim=   230 NE2=     2163929 trying DSYEV.
 GapD=    0.392 DampG=1.000 DampE=0.500 DampFc=0.5000 IDamp=-1.
 Damping current iteration by 5.00D-01
 RMSDP=9.21D-04 MaxDP=5.33D-02              OVMax= 1.05D-01

 Cycle   2  Pass 1  IDiag  1:
 E= -96.1164158971889     Delta-E=       -0.019262194573 Rises=F Damp=T
 DIIS: error= 4.70D-03 at cycle   2 NSaved=   2.
 NSaved= 2 IEnMin= 2 EnMin= -96.1164158971889     IErMin= 2 ErrMin= 4.70D-03
 ErrMax= 4.70D-03 EMaxC= 1.00D-01 BMatC= 4.22D-03 BMatP= 4.80D-02
 IDIUse=3 WtCom= 9.53D-01 WtEn= 4.70D-02
 Coeff-Com: -0.139D+00 0.114D+01
 Coeff-En:   0.000D+00 0.100D+01
 Coeff:     -0.133D+00 0.113D+01
 Gap=     0.436 Goal=   None    Shift=    0.000
 DSYEVD returned Info=       27026 IAlg= 4 N=   230 NDim=   230 NE2=     2163929 trying DSYEV.
 RMSDP=5.38D-04 MaxDP=2.07D-02 DE=-1.93D-02 OVMax= 5.25D-02

 Cycle   3  Pass 1  IDiag  1:
 E= -96.1343208906875     Delta-E=       -0.017904993499 Rises=F Damp=F
 DIIS: error= 2.75D-03 at cycle   3 NSaved=   3.
 NSaved= 3 IEnMin= 3 EnMin= -96.1343208906875     IErMin= 3 ErrMin= 2.75D-03
 ErrMax= 2.75D-03 EMaxC= 1.00D-01 BMatC= 8.04D-04 BMatP= 4.22D-03
 IDIUse=3 WtCom= 9.73D-01 WtEn= 2.75D-02
 Coeff-Com: -0.115D+00 0.336D+00 0.779D+00
 Coeff-En:   0.000D+00 0.000D+00 0.100D+01
 Coeff:     -0.112D+00 0.326D+00 0.785D+00
 Gap=     0.434 Goal=   None    Shift=    0.000
 DSYEVD returned Info=         461 IAlg= 4 N=   230 NDim=   230 NE2=     2163929 trying DSYEV.
 RMSDP=7.47D-05 MaxDP=3.08D-03 DE=-1.79D-02 OVMax= 8.54D-03

 Cycle   4  Pass 1  IDiag  1:
 E= -96.1350323673386     Delta-E=       -0.000711476651 Rises=F Damp=F
 DIIS: error= 5.87D-04 at cycle   4 NSaved=   4.
 NSaved= 4 IEnMin= 4 EnMin= -96.1350323673386     IErMin= 4 ErrMin= 5.87D-04
 ErrMax= 5.87D-04 EMaxC= 1.00D-01 BMatC= 3.00D-05 BMatP= 8.04D-04
 IDIUse=3 WtCom= 9.94D-01 WtEn= 5.87D-03
 Coeff-Com: -0.268D-01 0.595D-01 0.238D+00 0.729D+00
 Coeff-En:   0.000D+00 0.000D+00 0.000D+00 0.100D+01
 Coeff:     -0.267D-01 0.591D-01 0.236D+00 0.731D+00
 Gap=     0.433 Goal=   None    Shift=    0.000
 DSYEVD returned Info=       27026 IAlg= 4 N=   230 NDim=   230 NE2=     2163929 trying DSYEV.
 RMSDP=1.93D-05 MaxDP=1.05D-03 DE=-7.11D-04 OVMax= 2.17D-03

 Cycle   5  Pass 1  IDiag  1:
 E= -96.1350554492042     Delta-E=       -0.000023081866 Rises=F Damp=F
 DIIS: error= 2.05D-04 at cycle   5 NSaved=   5.
 NSaved= 5 IEnMin= 5 EnMin= -96.1350554492042     IErMin= 5 ErrMin= 2.05D-04
 ErrMax= 2.05D-04 EMaxC= 1.00D-01 BMatC= 4.62D-06 BMatP= 3.00D-05
 IDIUse=3 WtCom= 9.98D-01 WtEn= 2.05D-03
 Coeff-Com: -0.112D-01 0.207D-01 0.105D+00 0.380D+00 0.505D+00
 Coeff-En:   0.000D+00 0.000D+00 0.000D+00 0.000D+00 0.100D+01
 Coeff:     -0.111D-01 0.207D-01 0.105D+00 0.379D+00 0.506D+00
 Gap=     0.433 Goal=   None    Shift=    0.000
 DSYEVD returned Info=         461 IAlg= 4 N=   230 NDim=   230 NE2=     2163929 trying DSYEV.
 RMSDP=4.44D-06 MaxDP=2.17D-04 DE=-2.31D-05 OVMax= 5.49D-04

 Cycle   6  Pass 1  IDiag  1:
 E= -96.1350588405625     Delta-E=       -0.000003391358 Rises=F Damp=F
 DIIS: error= 2.77D-05 at cycle   6 NSaved=   6.
 NSaved= 6 IEnMin= 6 EnMin= -96.1350588405625     IErMin= 6 ErrMin= 2.77D-05
 ErrMax= 2.77D-05 EMaxC= 1.00D-01 BMatC= 5.11D-08 BMatP= 4.62D-06
 IDIUse=1 WtCom= 1.00D+00 WtEn= 0.00D+00
 Coeff-Com:  0.229D-03-0.820D-03 0.260D-03 0.743D-02 0.970D-01 0.896D+00
 Coeff:      0.229D-03-0.820D-03 0.260D-03 0.743D-02 0.970D-01 0.896D+00
 Gap=     0.433 Goal=   None    Shift=    0.000
 DSYEVD returned Info=         461 IAlg= 4 N=   230 NDim=   230 NE2=     2163929 trying DSYEV.
 RMSDP=6.87D-07 MaxDP=4.03D-05 DE=-3.39D-06 OVMax= 9.78D-05

 Cycle   7  Pass 1  IDiag  1:
 E= -96.1350588839010     Delta-E=       -0.000000043339 Rises=F Damp=F
 DIIS: error= 2.70D-06 at cycle   7 NSaved=   7.
 NSaved= 7 IEnMin= 7 EnMin= -96.1350588839010     IErMin= 7 ErrMin= 2.70D-06
 ErrMax= 2.70D-06 EMaxC= 1.00D-01 BMatC= 6.45D-10 BMatP= 5.11D-08
 IDIUse=1 WtCom= 1.00D+00 WtEn= 0.00D+00
 Coeff-Com:  0.200D-03-0.428D-03-0.142D-02-0.429D-02 0.207D-02 0.142D+00
 Coeff-Com:  0.862D+00
 Coeff:      0.200D-03-0.428D-03-0.142D-02-0.429D-02 0.207D-02 0.142D+00
 Coeff:      0.862D+00
 Gap=     0.433 Goal=   None    Shift=    0.000
 DSYEVD returned Info=         461 IAlg= 4 N=   230 NDim=   230 NE2=     2163929 trying DSYEV.
 RMSDP=7.86D-08 MaxDP=2.38D-06 DE=-4.33D-08 OVMax= 7.79D-06

 Cycle   8  Pass 1  IDiag  1:
 E= -96.1350588845941     Delta-E=       -0.000000000693 Rises=F Damp=F
 DIIS: error= 2.21D-07 at cycle   8 NSaved=   8.
 NSaved= 8 IEnMin= 8 EnMin= -96.1350588845941     IErMin= 8 ErrMin= 2.21D-07
 ErrMax= 2.21D-07 EMaxC= 1.00D-01 BMatC= 8.52D-12 BMatP= 6.45D-10
 IDIUse=1 WtCom= 1.00D+00 WtEn= 0.00D+00
 Coeff-Com:  0.314D-04-0.604D-04-0.304D-03-0.104D-02-0.262D-02-0.315D-02
 Coeff-Com:  0.993D-01 0.908D+00
 Coeff:      0.314D-04-0.604D-04-0.304D-03-0.104D-02-0.262D-02-0.315D-02
 Coeff:      0.993D-01 0.908D+00
 Gap=     0.433 Goal=   None    Shift=    0.000
 DSYEVD returned Info=       27026 IAlg= 4 N=   230 NDim=   230 NE2=     2163929 trying DSYEV.
 RMSDP=1.51D-08 MaxDP=6.00D-07 DE=-6.93D-10 OVMax= 1.19D-06

 Cycle   9  Pass 1  IDiag  1:
 E= -96.1350588846007     Delta-E=       -0.000000000007 Rises=F Damp=F
 DIIS: error= 2.29D-08 at cycle   9 NSaved=   9.
 NSaved= 9 IEnMin= 9 EnMin= -96.1350588846007     IErMin= 9 ErrMin= 2.29D-08
 ErrMax= 2.29D-08 EMaxC= 1.00D-01 BMatC= 7.11D-14 BMatP= 8.52D-12
 IDIUse=1 WtCom= 1.00D+00 WtEn= 0.00D+00
 Coeff-Com: -0.306D-05 0.623D-05 0.155D-04 0.699D-04-0.335D-04-0.169D-02
 Coeff-Com: -0.832D-02 0.172D-01 0.993D+00
 Coeff:     -0.306D-05 0.623D-05 0.155D-04 0.699D-04-0.335D-04-0.169D-02
 Coeff:     -0.832D-02 0.172D-01 0.993D+00
 Gap=     0.433 Goal=   None    Shift=    0.000
 RMSDP=1.44D-09 MaxDP=5.92D-08 DE=-6.62D-12 OVMax= 1.03D-07

 SCF Done:  E(RPBE1PBE) =  -96.1350588846     A.U. after    9 cycles
             Convg  =    0.1436D-08             -V/T =  2.0071
 KE= 9.545781862799D+01 PE=-3.130995737096D+02 EE= 7.392208613759D+01
 Leave Link  502 at Thu Feb 26 00:53:14 2015, MaxMem= 1073741824 cpu:     171.3
 (Enter /apps/gaussian/g09_c01/g09/l801.exe)
 Range of M.O.s used for correlation:     1   230
 NBasis=   230 NAE=     9 NBE=     9 NFC=     0 NFV=     0
 NROrb=    230 NOA=     9 NOB=     9 NVA=   221 NVB=   221

 **** Warning!!: The largest alpha MO coefficient is  0.55915718D+02

 Leave Link  801 at Thu Feb 26 00:53:14 2015, MaxMem= 1073741824 cpu:       0.1
 (Enter /apps/gaussian/g09_c01/g09/l1002.exe)
 Minotr:  Closed shell wavefunction.
          Direct CPHF calculation.
          Differentiating once with respect to electric field.
                with respect to dipole field.
          Electric field/nuclear overlap derivatives assumed to be zero.
          Using symmetry in CPHF.
          Requested convergence is 1.0D-08 RMS, and 1.0D-07 maximum.
          Secondary convergence is 1.0D-12 RMS, and 1.0D-12 maximum.
          NewPWx=F KeepS1=T KeepF1=T KeepIn=T MapXYZ=F SortEE=F KeepMc=T.
          MDV=    1073741756 using IRadAn=       1.
 Generate precomputed XC quadrature information.
          Keep R1 ints in memory in canonical form, NReq=577583429.
 Symmetry not used in FoFDir.
 MinBra= 0 MaxBra= 3 Meth= 1.
 IRaf=       0 NMat=   1 IRICut=       1 DoRegI=T DoRafI=F ISym2E= 0 JSym2E=0.
          Solving linear equations simultaneously, MaxMat=       0.
          There are     3 degrees of freedom in the 1st order CPHF.  IDoFFX=0.
      3 vectors produced by pass  0 Test12= 6.63D-14 3.33D-08 XBig12= 1.00D+01 1.32D+00.
 AX will form     3 AO Fock derivatives at one time.
      3 vectors produced by pass  1 Test12= 6.63D-14 3.33D-08 XBig12= 6.14D-01 3.28D-01.
      3 vectors produced by pass  2 Test12= 6.63D-14 3.33D-08 XBig12= 1.32D-01 1.02D-01.
      3 vectors produced by pass  3 Test12= 6.63D-14 3.33D-08 XBig12= 5.82D-03 1.78D-02.
      3 vectors produced by pass  4 Test12= 6.63D-14 3.33D-08 XBig12= 1.15D-03 7.42D-03.
      3 vectors produced by pass  5 Test12= 6.63D-14 3.33D-08 XBig12= 3.70D-05 1.46D-03.
      3 vectors produced by pass  6 Test12= 6.63D-14 3.33D-08 XBig12= 1.58D-06 3.43D-04.
      3 vectors produced by pass  7 Test12= 6.63D-14 3.33D-08 XBig12= 2.69D-08 5.78D-05.
      1 vectors produced by pass  8 Test12= 6.63D-14 3.33D-08 XBig12= 1.00D-10 2.91D-06.
      1 vectors produced by pass  9 Test12= 6.63D-14 3.33D-08 XBig12= 1.95D-13 1.42D-07.
 Inverted reduced A of dimension    26 with in-core refinement.
 End of Minotr Frequency-dependent properties file   721 does not exist.
 End of Minotr Frequency-dependent properties file   722 does not exist.
 Leave Link 1002 at Thu Feb 26 00:53:54 2015, MaxMem= 1073741824 cpu:     315.9
 (Enter /apps/gaussian/g09_c01/g09/l1101.exe)
 Using compressed storage, NAtomX=     8.
 Will process   9 centers per pass.
 Leave Link 1101 at Thu Feb 26 00:53:54 2015, MaxMem= 1073741824 cpu:       2.0
 (Enter /apps/gaussian/g09_c01/g09/l1102.exe)
 Symmetrizing basis deriv contribution to polar:
 IMax=3 JMax=2 DiffMx= 0.00D+00
 Leave Link 1102 at Thu Feb 26 00:53:54 2015, MaxMem= 1073741824 cpu:       0.2
 (Enter /apps/gaussian/g09_c01/g09/l1110.exe)
 Forming Gx(P) for the SCF density, NAtomX=     8.
 Integral derivatives from FoFDir/FoFCou, PRISM(SPDF).
 Do as many integral derivatives as possible in FoFDir.
 G2DrvN: MDV=    1073741656.
 G2DrvN: will do     9 centers at a time, making    1 passes doing MaxLOS=3.
 Calling FoFCou, ICntrl=  3107 FMM=F I1Cent=   0 AccDes= 0.00D+00.
 FoFCou: FMM=F IPFlag=           0 FMFlag=      100000 FMFlg1=           0
         NFxFlg=           0 DoJE=F BraDBF=F KetDBF=F FulRan=T
         Omega=  0.000000  0.000000  1.000000  0.000000  0.000000 ICntrl=    3107 IOpCl=  0
         NMat0=    1 NMatS0=    1 NMatT0=    0 NMatD0=    4 NMtDS0=    3 NMtDT0=    0
         I1Cent=           0 NGrid=           0.
 Petite list used in FoFCou.
 FoFDir/FoFCou used for L=0 through L=3.
 End of G2Drv Frequency-dependent properties file   721 does not exist.
 End of G2Drv Frequency-dependent properties file   722 does not exist.
 Leave Link 1110 at Thu Feb 26 00:54:38 2015, MaxMem= 1073741824 cpu:     350.3
 (Enter /apps/gaussian/g09_c01/g09/l1002.exe)
 Minotr:  Closed shell wavefunction.
          IDoAtm=11111111
          Direct CPHF calculation.
          Differentiating once with respect to electric field.
                with respect to dipole field.
          Differentiating once with respect to nuclear coordinates.
          Using symmetry in CPHF.
          Requested convergence is 1.0D-08 RMS, and 1.0D-07 maximum.
          Secondary convergence is 1.0D-12 RMS, and 1.0D-12 maximum.
          NewPWx=T KeepS1=F KeepF1=F KeepIn=T MapXYZ=F SortEE=F KeepMc=T.
          MDV=    1073741740 using IRadAn=       1.
 Generate precomputed XC quadrature information.
          Keep R1 ints in memory in canonical form, NReq=577583597.
 Symmetry not used in FoFDir.
 MinBra= 0 MaxBra= 3 Meth= 1.
 IRaf=       0 NMat=   1 IRICut=       1 DoRegI=T DoRafI=F ISym2E= 0 JSym2E=0.
          Solving linear equations simultaneously, MaxMat=       0.
          There are    15 degrees of freedom in the 1st order CPHF.  IDoFFX=4.
 Will reuse    3 saved solutions.
     12 vectors produced by pass  0 Test12= 1.33D-14 6.67D-09 XBig12= 7.21D-02 8.57D-02.
 AX will form    12 AO Fock derivatives at one time.
     12 vectors produced by pass  1 Test12= 1.33D-14 6.67D-09 XBig12= 4.90D-03 1.80D-02.
     12 vectors produced by pass  2 Test12= 1.33D-14 6.67D-09 XBig12= 3.65D-05 1.85D-03.
     12 vectors produced by pass  3 Test12= 1.33D-14 6.67D-09 XBig12= 2.64D-07 1.13D-04.
     12 vectors produced by pass  4 Test12= 1.33D-14 6.67D-09 XBig12= 8.07D-10 7.18D-06.
     11 vectors produced by pass  5 Test12= 1.33D-14 6.67D-09 XBig12= 1.68D-12 3.45D-07.
      2 vectors produced by pass  6 Test12= 1.33D-14 6.67D-09 XBig12= 2.89D-15 1.37D-08.
 Inverted reduced A of dimension    73 with in-core refinement.
 FullF1:  Do perturbations    1 to    15.
 Isotropic polarizability for W=    0.000000       20.41 Bohr**3.
 FullF1:  Do perturbations    1 to     6.
 End of Minotr Frequency-dependent properties file   721 does not exist.
 End of Minotr Frequency-dependent properties file   722 does not exist.
 Leave Link 1002 at Thu Feb 26 00:55:41 2015, MaxMem= 1073741824 cpu:     502.0
 (Enter /apps/gaussian/g09_c01/g09/l601.exe)
 Copying SCF densities to generalized density rwf, IOpCl= 0 IROHF=0.

 **********************************************************************

            Population analysis using the SCF density.

 **********************************************************************

 Orbital symmetries:
       Occupied  (A) (A) (A) (A) (E) (E) (A) (E) (E)
       Virtual   (A) (A) (E) (E) (E) (E) (A) (A) (E) (E) (A) (E)
                 (E) (A) (E) (E) (E) (E) (A) (E) (E) (A) (A) (A)
                 (E) (E) (A) (E) (E) (E) (E) (A) (E) (E) (A) (E)
                 (E) (A) (A) (E) (E) (A) (E) (E) (E) (E) (A) (E)
                 (E) (A) (A) (E) (E) (A) (E) (E) (A) (E) (E) (A)
                 (E) (E) (A) (A) (E) (E) (E) (E) (A) (A) (E) (E)
                 (E) (E) (A) (E) (E) (A) (E) (E) (E) (E) (E) (E)
                 (A) (E) (E) (A) (A) (E) (E) (A) (E) (E) (E) (E)
                 (A) (E) (E) (A) (A) (E) (E) (A) (A) (E) (E) (A)
                 (E) (E) (A) (E) (E) (E) (E) (A) (A) (E) (E) (A)
                 (E) (E) (E) (E) (A) (E) (E) (A) (E) (E) (A) (A)
                 (E) (E) (A) (A) (E) (E) (A) (E) (E) (A) (E) (E)
                 (A) (E) (E) (A) (E) (E) (E) (E) (A) (E) (E) (A)
                 (A) (E) (E) (E) (E) (E) (E) (A) (A) (E) (E) (A)
                 (A) (E) (E) (A) (E) (E) (E) (E) (E) (E) (A) (A)
                 (E) (E) (A) (E) (E) (E) (E) (A) (A) (E) (E) (A)
                 (A) (E) (E) (A) (E) (E) (E) (E) (A) (A) (E) (E)
                 (E) (E) (A) (A) (E) (E) (A) (A) (E) (E) (A) (E)
                 (E) (E) (E) (A) (A)
 The electronic state is 1-A.
 Alpha  occ. eigenvalues --  -14.73316 -10.48757  -1.24588  -0.95523  -0.81809
 Alpha  occ. eigenvalues --   -0.81809  -0.71988  -0.63792  -0.63792
 Alpha virt. eigenvalues --   -0.20478  -0.14082  -0.13887  -0.13887  -0.09901
 Alpha virt. eigenvalues --   -0.09901  -0.08927  -0.06381  -0.06358  -0.06358
 Alpha virt. eigenvalues --   -0.04651  -0.04351  -0.04351  -0.02126  -0.01794
 Alpha virt. eigenvalues --   -0.01794  -0.00238  -0.00238   0.01471   0.04196
 Alpha virt. eigenvalues --    0.04196   0.07644   0.10053   0.10159   0.10866
 Alpha virt. eigenvalues --    0.10866   0.13108   0.13905   0.13905   0.16243
 Alpha virt. eigenvalues --    0.16243   0.16605   0.17584   0.17584   0.18491
 Alpha virt. eigenvalues --    0.19063   0.19063   0.19425   0.20453   0.26786
 Alpha virt. eigenvalues --    0.26786   0.27630   0.27825   0.27825   0.29619
 Alpha virt. eigenvalues --    0.29619   0.34408   0.34643   0.34643   0.43975
 Alpha virt. eigenvalues --    0.44819   0.45687   0.45687   0.50641   0.51251
 Alpha virt. eigenvalues --    0.51251   0.54157   0.56205   0.56205   0.59097
 Alpha virt. eigenvalues --    0.61100   0.61100   0.61627   0.61982   0.62153
 Alpha virt. eigenvalues --    0.62153   0.66325   0.66325   0.67988   0.70513
 Alpha virt. eigenvalues --    0.75456   0.75456   0.77164   0.77164   0.77295
 Alpha virt. eigenvalues --    0.83595   0.83595   0.84730   0.86070   0.86070
 Alpha virt. eigenvalues --    0.89592   0.89592   0.92439   0.92439   0.93791
 Alpha virt. eigenvalues --    0.96393   0.96393   1.00335   1.00353   1.01028
 Alpha virt. eigenvalues --    1.01028   1.12324   1.12920   1.12920   1.19502
 Alpha virt. eigenvalues --    1.19502   1.21658   1.23698   1.23698   1.23770
 Alpha virt. eigenvalues --    1.25873   1.29520   1.29520   1.32213   1.34159
 Alpha virt. eigenvalues --    1.38683   1.38683   1.39962   1.44800   1.44800
 Alpha virt. eigenvalues --    1.49512   1.56717   1.56717   1.58011   1.58011
 Alpha virt. eigenvalues --    1.58230   1.63943   1.66796   1.66796   1.68520
 Alpha virt. eigenvalues --    1.78660   1.78660   1.81226   1.81226   1.90410
 Alpha virt. eigenvalues --    1.96057   1.96057   1.99327   2.04610   2.04610
 Alpha virt. eigenvalues --    2.13491   2.14043   2.17398   2.17398   2.45766
 Alpha virt. eigenvalues --    2.66476   2.83886   2.83886   2.89528   3.04865
 Alpha virt. eigenvalues --    3.04865   3.08898   3.09939   3.09939   3.20073
 Alpha virt. eigenvalues --    3.20455   3.20455   3.29342   3.36961   3.36961
 Alpha virt. eigenvalues --    3.43211   3.43211   3.52643   3.53814   3.53814
 Alpha virt. eigenvalues --    3.54952   3.57613   3.59098   3.59098   3.67319
 Alpha virt. eigenvalues --    3.67319   3.72941   3.72941   3.75049   3.86278
 Alpha virt. eigenvalues --    3.90614   3.90614   3.97632   3.98825   4.01640
 Alpha virt. eigenvalues --    4.01640   4.06321   4.10028   4.10028   4.16839
 Alpha virt. eigenvalues --    4.16839   4.22917   4.22917   4.28600   4.29497
 Alpha virt. eigenvalues --    4.35076   4.35076   4.40712   4.43034   4.43034
 Alpha virt. eigenvalues --    4.52030   4.52030   4.53273   4.56319   4.65248
 Alpha virt. eigenvalues --    4.65248   4.72497   4.85137   4.86856   4.86856
 Alpha virt. eigenvalues --    4.91387   5.11516   5.11516   5.18727   5.18727
 Alpha virt. eigenvalues --    5.20418   5.22447   5.42298   5.42298   5.50054
 Alpha virt. eigenvalues --    5.50054   5.52532   5.72012   5.80901   5.80901
 Alpha virt. eigenvalues --    5.86476   6.06082   6.09835   6.09835   6.21142
 Alpha virt. eigenvalues --    6.43068   6.43068   7.09130   7.09130  16.43258
 Alpha virt. eigenvalues --   17.72168
          Condensed to atoms (all electrons):
              1          2          3          4          5          6
     1  C    5.341706   0.378490   0.378490   0.378490   0.177640  -0.009890
     2  H    0.378490   0.289523   0.007495   0.007495  -0.009244  -0.000804
     3  H    0.378490   0.007495   0.289523   0.007495  -0.009244  -0.000475
     4  H    0.378490   0.007495   0.007495   0.289523  -0.009244  -0.000473
     5  N    0.177640  -0.009244  -0.009244  -0.009244   5.523694   0.380332
     6  H   -0.009890  -0.000804  -0.000475  -0.000473   0.380332   0.554801
     7  H   -0.009890  -0.000475  -0.000473  -0.000804   0.380332  -0.037705
     8  H   -0.009890  -0.000473  -0.000804  -0.000475   0.380332  -0.037705
              7          8
     1  C   -0.009890  -0.009890
     2  H   -0.000475  -0.000473
     3  H   -0.000473  -0.000804
     4  H   -0.000804  -0.000475
     5  N    0.380332   0.380332
     6  H   -0.037705  -0.037705
     7  H    0.554801  -0.037705
     8  H   -0.037705   0.554801
 Mulliken atomic charges:
              1
     1  C   -0.625145
     2  H    0.327995
     3  H    0.327995
     4  H    0.327995
     5  N    0.185403
     6  H    0.151919
     7  H    0.151919
     8  H    0.151919
 Sum of Mulliken atomic charges =   1.00000
 Mulliken charges with hydrogens summed into heavy atoms:
              1
     1  C    0.358838
     5  N    0.641162
 Sum of Mulliken charges with hydrogens summed into heavy atoms =   1.00000
 APT atomic charges:
              1
     1  C    0.234756
     2  H    0.072219
     3  H    0.072218
     4  H    0.072218
     5  N   -0.227964
     6  H    0.258850
     7  H    0.258851
     8  H    0.258851
 Sum of APT charges=   1.00000
 APT Atomic charges with hydrogens summed into heavy atoms:
              1
     1  C    0.451411
     2  H    0.000000
     3  H    0.000000
     4  H    0.000000
     5  N    0.548588
     6  H    0.000000
     7  H    0.000000
     8  H    0.000000
 Sum of APT charges=   1.00000
 Electronic spatial extent (au):  <R**2>=             94.5332
 Charge=              1.0000 electrons
 Dipole moment (field-independent basis, Debye):
    X=              0.0000    Y=              0.0000    Z=              2.1788  Tot=              2.1788
 Quadrupole moment (field-independent basis, Debye-Ang):
   XX=            -10.0861   YY=            -10.0861   ZZ=             -6.6187
   XY=              0.0000   XZ=              0.0000   YZ=              0.0000
 Traceless Quadrupole moment (field-independent basis, Debye-Ang):
   XX=             -1.1558   YY=             -1.1558   ZZ=              2.3116
   XY=              0.0000   XZ=              0.0000   YZ=              0.0000
 Octapole moment (field-independent basis, Debye-Ang**2):
  XXX=             -0.3846  YYY=             -0.1104  ZZZ=              5.7392  XYY=              0.3846
  XXY=              0.1104  XXZ=              2.5778  XZZ=              0.0000  YZZ=              0.0000
  YYZ=              2.5778  XYZ=              0.0000
 Hexadecapole moment (field-independent basis, Debye-Ang**3):
 XXXX=            -17.7761 YYYY=            -17.7761 ZZZZ=            -62.0703 XXXY=              0.0000
 XXXZ=             -2.8129 YYYX=              0.0000 YYYZ=             -0.8040 ZZZX=              0.0000
 ZZZY=              0.0000 XXYY=             -5.9254 XXZZ=            -10.6501 YYZZ=            -10.6501
 XXYZ=              0.8040 YYXZ=              2.8129 ZZXY=              0.0000
 N-N= 4.758461005939D+01 E-N=-3.130995719714D+02  KE= 9.545781862799D+01
  Exact polarizability:  19.334   0.000  19.334   0.000   0.000  22.553
 Approx polarizability:  24.985   0.000  24.985   0.000   0.000  26.527
 No NMR shielding tensors so no spin-rotation constants.
 Leave Link  601 at Thu Feb 26 00:55:41 2015, MaxMem= 1073741824 cpu:       1.8
 (Enter /apps/gaussian/g09_c01/g09/l701.exe)
 Compute integral second derivatives.
 ... and contract with generalized density number  0.
 Leave Link  701 at Thu Feb 26 00:55:42 2015, MaxMem= 1073741824 cpu:       2.2
 (Enter /apps/gaussian/g09_c01/g09/l702.exe)
 L702 exits ... SP integral derivatives will be done elsewhere.
 Leave Link  702 at Thu Feb 26 00:55:42 2015, MaxMem= 1073741824 cpu:       0.1
 (Enter /apps/gaussian/g09_c01/g09/l703.exe)
 Compute integral second derivatives, UseDBF=F ICtDFT=           0.
 Integral derivatives from FoFDir, PRISM(SPDF).
 Calling FoFJK, ICntrl=    100127 FMM=F ISym2X=1 I1Cent= 0 IOpClX= 0 NMat=1 NMatS=1 NMatT=0.
 FoFCou: FMM=F IPFlag=           0 FMFlag=      100000 FMFlg1=         800
         NFxFlg=           0 DoJE=F BraDBF=F KetDBF=F FulRan=T
         Omega=  0.000000  0.000000  1.000000  0.000000  0.000000 ICntrl=  100127 IOpCl=  0
         NMat0=    1 NMatS0=    1 NMatT0=    0 NMatD0=    1 NMtDS0=    0 NMtDT0=    0
         I1Cent=           0 NGrid=           0.
 Petite list used in FoFCou.
 Leave Link  703 at Thu Feb 26 00:56:35 2015, MaxMem= 1073741824 cpu:     425.3
 (Enter /apps/gaussian/g09_c01/g09/l716.exe)
 Dipole        = 2.44417794D-15-9.97709944D-16 8.57188578D-01
 Polarizability= 1.93337785D+01-7.24952242D-06 1.93337964D+01
                -4.20966854D-06 1.56193073D-05 2.25526044D+01
 HyperPolar    = 1.58687052D+00-4.52653199D-01-1.58903099D+00
                 4.52255652D-01-2.34927831D+00-1.93650152D-04
                -2.34937389D+00 1.15548094D-04 3.71299582D-04
                 6.42021445D+00
 ***** Axes restored to original set *****
 -------------------------------------------------------------------
 Center     Atomic                   Forces (Hartrees/Bohr)
 Number     Number              X              Y              Z
 -------------------------------------------------------------------
      1        6           0.000000000    0.000000000    0.007041055
      2        1           0.000185511    0.001997795    0.000839965
      3        1           0.001637386   -0.001159554    0.000839965
      4        1          -0.001822896   -0.000838240    0.000839965
      5        7           0.000000000    0.000000000   -0.001477059
      6        1          -0.000448612   -0.004814361   -0.002694630
      7        1           0.004393665    0.002018671   -0.002694630
      8        1          -0.003945053    0.002795690   -0.002694630
 -------------------------------------------------------------------
 Cartesian Forces:  Max     0.007041055 RMS     0.002564766
 Force constants in Cartesian coordinates: 
                1             2             3             4             5 
      1  0.626360D+00
      2  0.000000D+00  0.626360D+00
      3  0.000000D+00  0.000000D+00  0.398449D+00
      4 -0.528068D-01 -0.238141D-01 -0.766079D-02  0.488973D-01
      5 -0.238146D-01 -0.306692D+00 -0.823556D-01  0.253434D-01  0.319080D+00
      6 -0.630281D-02 -0.677483D-01 -0.715862D-01  0.785184D-02  0.844035D-01
      7 -0.222597D+00  0.121843D+00 -0.674916D-01  0.417095D-02 -0.354304D-02
      8  0.121843D+00 -0.136902D+00  0.478122D-01  0.228235D-01 -0.123697D-01
      9 -0.555204D-01  0.393326D-01 -0.715862D-01  0.899614D-02 -0.427687D-02
     10 -0.263844D+00 -0.980279D-01  0.751524D-01  0.114136D-03  0.120083D-02
     11 -0.980286D-01 -0.956542D-01  0.345433D-01 -0.251657D-01 -0.831292D-02
     12  0.618232D-01  0.284157D-01 -0.715862D-01 -0.963039D-02 -0.254471D-02
     13 -0.963250D-01 -0.187974D-05  0.000000D+00 -0.883765D-03  0.710519D-03
     14  0.180458D-05 -0.963247D-01  0.000000D+00  0.709756D-03  0.668868D-02
     15  0.000000D+00  0.000000D+00 -0.147839D+00  0.372552D-03  0.401351D-02
     16 -0.272572D-04  0.582583D-03 -0.210170D-03  0.313419D-03  0.597371D-04
     17  0.581959D-03  0.616944D-02 -0.226368D-02  0.596824D-04  0.949730D-03
     18 -0.305429D-02 -0.328102D-01 -0.119509D-01  0.209084D-03  0.225058D-02
     19  0.512456D-02  0.239242D-02  0.206542D-02  0.190961D-03  0.292376D-03
     20  0.239182D-02  0.101765D-02  0.949767D-03  0.749463D-03  0.234205D-03
     21  0.299416D-01  0.137600D-01 -0.119507D-01  0.311689D-03 -0.780672D-03
     22  0.411600D-02 -0.297409D-02 -0.185529D-02  0.386523D-05 -0.249112D-03
     23 -0.297469D-02  0.202619D-02  0.131377D-02 -0.706000D-03  0.422112D-03
     24 -0.268874D-01  0.190502D-01 -0.119508D-01 -0.450089D-03 -0.709877D-03
                6             7             8             9            10 
      6  0.861865D-01
      7  0.261141D-02  0.229586D+00
      8  0.961252D-02 -0.129664D+00  0.138391D+00
      9  0.484003D-02  0.691696D-01 -0.490016D-01  0.861865D-01
     10 -0.794193D-03 -0.165833D-01 -0.108411D-01  0.701898D-02  0.273482D+00
     11  0.992932D-02  0.155255D-01  0.838448D-02 -0.706781D-02  0.104321D+00
     12  0.484003D-02 -0.820194D-02 -0.565245D-02  0.484003D-02 -0.770215D-01
     13 -0.337218D-02  0.418060D-02 -0.363369D-02 -0.297149D-01  0.541068D-02
     14 -0.362588D-01 -0.363447D-02  0.162438D-02  0.210498D-01  0.292356D-02
     15 -0.202791D-01  0.328958D-02 -0.232944D-02 -0.202791D-01 -0.366220D-02
     16  0.174259D-03 -0.227736D-03 -0.507728D-03 -0.720466D-03 -0.960252D-04
     17  0.186808D-02 -0.506418D-04  0.652901D-03  0.551970D-03  0.191440D-03
     18 -0.652964D-02 -0.831926D-03  0.120405D-03  0.126367D-02  0.839816D-03
     19 -0.117787D-03  0.731126D-03  0.286116D-03 -0.759760D-03  0.842362D-03
     20 -0.899927D-03 -0.170773D-03 -0.305149D-03  0.496910D-03  0.245649D-03
     21  0.126367D-02 -0.389727D-03  0.744727D-03  0.126468D-02 -0.205360D-02
     22 -0.504564D-04  0.738942D-03 -0.305359D-03  0.153068D-02  0.674523D-03
     23 -0.906426D-03 -0.305413D-03  0.524207D-03 -0.108495D-02 -0.131914D-04
     24  0.126468D-02  0.184452D-02 -0.130636D-02 -0.652964D-02  0.520237D-03
               11            12            13            14            15 
     11  0.944950D-01
     12 -0.354018D-01  0.861865D-01
     13  0.292433D-02  0.330871D-01  0.711066D+00
     14  0.394351D-03  0.152090D-01  0.000000D+00  0.711066D+00
     15 -0.168416D-02 -0.202791D-01  0.000000D+00  0.000000D+00  0.506113D+00
     16  0.648329D-03  0.810217D-03 -0.661691D-01 -0.266042D-01 -0.985807D-02
     17  0.522003D-03  0.409517D-03 -0.266036D-01 -0.349464D+00 -0.105869D+00
     18 -0.348503D-04  0.126468D-02 -0.105486D-01 -0.113292D+00 -0.991457D-01
     19  0.245704D-03 -0.170494D-02 -0.301680D+00 -0.109368D+00  0.966146D-01
     20  0.420786D-03 -0.783129D-03 -0.109368D+00 -0.113953D+00  0.443973D-01
     21 -0.944216D-03 -0.652964D-02  0.103388D+00  0.475104D-01 -0.991457D-01
     22 -0.470278D-03  0.838253D-03 -0.255600D+00  0.135972D+00 -0.867566D-01
     23 -0.249358D-03  0.347957D-03  0.135972D+00 -0.160032D+00  0.614720D-01
     24  0.660266D-03  0.126367D-02 -0.928392D-01  0.657811D-01 -0.991457D-01
               16            17            18            19            20 
     16  0.619393D-01
     17  0.289276D-01  0.369970D+00
     18  0.108014D-01  0.116015D+00  0.104420D+00
     19 -0.556378D-03 -0.268724D-04 -0.534861D-03  0.318014D+00
     20 -0.317168D-01 -0.117100D-01  0.140460D-01  0.118917D+00  0.113895D+00
     21 -0.134288D-01 -0.415121D-02  0.533873D-02 -0.105872D+00 -0.486530D-01
     22  0.482386D-02 -0.307941D-02  0.311935D-02 -0.226670D-01  0.189512D-01
     23  0.286105D-01 -0.170902D-01  0.137053D-01 -0.127387D-01  0.104006D-01
     24  0.124316D-01 -0.655980D-02  0.533873D-02  0.103095D-01 -0.955409D-02
               21            22            23            24 
     21  0.104420D+00
     22 -0.118968D-01  0.267910D+00
     23 -0.748620D-02 -0.147845D+00  0.163999D+00
     24  0.533873D-02  0.950709D-01 -0.673616D-01  0.104420D+00
 Force constants in internal coordinates: 
                1             2             3             4             5 
      1  0.348791D+00
      2  0.145023D-02  0.348791D+00
      3  0.145027D-02  0.145022D-02  0.348791D+00
      4  0.302107D-02  0.302108D-02  0.302101D-02  0.256532D+00
      5 -0.142887D-02  0.336162D-03  0.336006D-03  0.533941D-02  0.416077D+00
      6  0.336157D-03  0.336041D-03 -0.142880D-02  0.533934D-02  0.237561D-02
      7  0.336023D-03 -0.142883D-02  0.336156D-03  0.533933D-02  0.237558D-02
      8  0.380840D-02  0.380829D-02 -0.143073D-02 -0.252624D-01  0.372239D-04
      9  0.380828D-02 -0.143071D-02  0.380841D-02 -0.252624D-01  0.377512D-04
     10  0.757549D-03 -0.363166D-02 -0.363150D-02  0.265674D-01  0.242557D-02
     11 -0.143073D-02  0.380842D-02  0.380830D-02 -0.252624D-01  0.936739D-03
     12 -0.363142D-02  0.757536D-03 -0.363165D-02  0.265674D-01 -0.174491D-02
     13 -0.363164D-02 -0.363144D-02  0.757606D-03  0.265674D-01 -0.174464D-02
     14  0.495625D-03  0.141154D-03  0.140453D-03  0.135626D-01 -0.484936D-02
     15  0.141120D-03  0.140464D-03  0.495625D-03  0.135627D-01 -0.425152D-02
     16  0.140433D-03  0.495618D-03  0.141172D-03  0.135626D-01 -0.425082D-02
     17 -0.347306D-03 -0.140860D-03 -0.347089D-03 -0.145754D-01  0.704860D-02
     18 -0.347066D-03 -0.347324D-03 -0.140850D-03 -0.145754D-01  0.705327D-02
     19 -0.140839D-03 -0.347089D-03 -0.347349D-03 -0.145754D-01  0.246825D-03
     20  0.000000D+00 -0.292823D-02  0.292828D-02  0.000000D+00  0.336349D-05
     21 -0.677883D-05 -0.291488D-02  0.292152D-02  0.000000D+00  0.275555D-02
     22  0.654489D-05 -0.292164D-02  0.291492D-02  0.000000D+00 -0.275527D-02
     23  0.292151D-02 -0.678638D-05 -0.291491D-02  0.000000D+00  0.435074D-03
     24  0.291493D-02  0.655532D-05 -0.292168D-02  0.000000D+00  0.318726D-02
     25  0.292825D-02  0.000000D+00 -0.292827D-02  0.000000D+00 -0.232356D-02
     26 -0.292164D-02  0.291492D-02  0.657562D-05  0.000000D+00 -0.429134D-03
     27 -0.292822D-02  0.292826D-02  0.000000D+00  0.000000D+00  0.232305D-02
     28 -0.291489D-02  0.292151D-02 -0.678372D-05  0.000000D+00 -0.318777D-02
                6             7             8             9            10 
      6  0.416077D+00
      7  0.237557D-02  0.416077D+00
      8  0.936719D-03  0.377286D-04  0.516854D-01
      9  0.372038D-04  0.936733D-03  0.117752D-01  0.516854D-01
     10 -0.174490D-02 -0.174462D-02 -0.449256D-01 -0.449227D-01  0.130840D+00
     11  0.377131D-04  0.372061D-04  0.117752D-01  0.117752D-01  0.107258D-01
     12 -0.174459D-02  0.242559D-02 -0.449227D-01  0.107258D-01 -0.238148D-01
     13  0.242559D-02 -0.174491D-02  0.107258D-01 -0.449256D-01 -0.238148D-01
     14 -0.425091D-02 -0.425156D-02 -0.390465D-02 -0.390434D-02  0.170988D-01
     15 -0.484937D-02 -0.425087D-02  0.341995D-02 -0.390466D-02 -0.624057D-02
     16 -0.425154D-02 -0.484933D-02 -0.390435D-02  0.341996D-02 -0.624241D-02
     17  0.705332D-02  0.246846D-03  0.621322D-03  0.347434D-02 -0.464363D-02
     18  0.246860D-03  0.704862D-02  0.347434D-02  0.621110D-03 -0.464256D-02
     19  0.704865D-02  0.705330D-02  0.621120D-03  0.621330D-03  0.432573D-02
     20 -0.232357D-02  0.232308D-02 -0.582557D-02  0.582424D-02  0.156763D-05
     21  0.435043D-03 -0.318778D-02 -0.536541D-02  0.490397D-02  0.152008D-02
     22  0.318728D-02 -0.429134D-03 -0.490530D-02  0.536414D-02 -0.151704D-02
     23 -0.318776D-02  0.275557D-02  0.490396D-02  0.460275D-03  0.713005D-02
     24 -0.429149D-03 -0.275529D-02  0.536413D-02 -0.460001D-03  0.864857D-02
     25  0.232309D-02  0.336025D-05  0.582424D-02  0.000000D+00  0.561144D-02
     26 -0.275527D-02  0.318728D-02 -0.459998D-03 -0.490530D-02 -0.713031D-02
     27  0.334063D-05 -0.232358D-02  0.000000D+00 -0.582558D-02 -0.561179D-02
     28  0.275558D-02  0.435066D-03  0.460277D-03 -0.536541D-02 -0.864892D-02
               11            12            13            14            15 
     11  0.516854D-01
     12 -0.449256D-01  0.130840D+00
     13 -0.449227D-01 -0.238148D-01  0.130840D+00
     14  0.341996D-02 -0.624057D-02 -0.624243D-02  0.975683D-01
     15 -0.390436D-02 -0.624243D-02  0.170988D-01 -0.178606D-01  0.975684D-01
     16 -0.390465D-02  0.170988D-01 -0.624060D-02 -0.178606D-01 -0.178606D-01
     17  0.621117D-03  0.432574D-02 -0.464256D-02 -0.398960D-01 -0.398965D-01
     18  0.621320D-03 -0.464363D-02  0.432575D-02 -0.398965D-01  0.133271D-01
     19  0.347436D-02 -0.464258D-02 -0.464363D-02  0.133271D-01 -0.398960D-01
     20  0.000000D+00 -0.561177D-02  0.561143D-02  0.000000D+00 -0.223610D-02
     21  0.460272D-03 -0.864890D-02  0.713005D-02  0.374043D-02  0.150427D-02
     22 -0.459994D-03 -0.713031D-02  0.864857D-02 -0.374089D-02  0.524528D-02
     23 -0.536541D-02  0.152009D-02 -0.864891D-02  0.150426D-02 -0.524503D-02
     24 -0.490530D-02 -0.151704D-02 -0.713029D-02  0.524524D-02 -0.150467D-02
     25 -0.582557D-02  0.155308D-05 -0.561178D-02 -0.223608D-02  0.223635D-02
     26  0.536413D-02  0.864857D-02 -0.151704D-02 -0.150467D-02 -0.374092D-02
     27  0.582423D-02  0.561144D-02  0.158667D-05  0.223632D-02  0.000000D+00
     28  0.490397D-02  0.713004D-02  0.152010D-02 -0.524500D-02  0.374046D-02
               16            17            18            19            20 
     16  0.975683D-01
     17  0.133271D-01  0.532479D-01
     18 -0.398960D-01  0.909035D-02  0.532479D-01
     19 -0.398965D-01  0.909034D-02  0.909034D-02  0.532478D-01
     20  0.223633D-02 -0.717557D-02  0.717604D-02  0.000000D+00  0.140905D-01
     21 -0.524503D-02  0.605060D-02  0.562780D-03 -0.661303D-02  0.340822D-02
     22 -0.150467D-02 -0.562675D-03 -0.605014D-02  0.661313D-02  0.340823D-02
     23  0.374046D-02 -0.661303D-02  0.605060D-02  0.562774D-03  0.392944D-02
     24 -0.374090D-02  0.661314D-02 -0.562660D-03 -0.605014D-02 -0.675281D-02
     25  0.000000D+00  0.000000D+00 -0.717558D-02  0.717602D-02 -0.675280D-02
     26  0.524526D-02 -0.605013D-02  0.661314D-02 -0.562657D-03  0.392945D-02
     27 -0.223610D-02  0.717604D-02  0.000000D+00 -0.717557D-02 -0.675280D-02
     28  0.150426D-02  0.562762D-03 -0.661304D-02  0.605059D-02 -0.675279D-02
               21            22            23            24            25 
     21  0.147170D-01
     22  0.372151D-02  0.147170D-01
     23 -0.706608D-02 -0.737936D-02  0.147170D-01
     24  0.424272D-02 -0.706608D-02  0.372150D-02  0.147170D-01
     25 -0.675279D-02  0.392944D-02  0.340822D-02  0.340823D-02  0.140905D-01
     26 -0.737936D-02 -0.706609D-02  0.424272D-02 -0.706609D-02 -0.675281D-02
     27  0.392944D-02 -0.675280D-02 -0.675280D-02  0.392944D-02 -0.675280D-02
     28 -0.706607D-02  0.424272D-02 -0.706608D-02 -0.737936D-02  0.392943D-02
               26            27            28 
     26  0.147170D-01
     27  0.340823D-02  0.140905D-01
     28  0.372151D-02  0.340823D-02  0.147170D-01
 Leave Link  716 at Thu Feb 26 00:56:35 2015, MaxMem= 1073741824 cpu:       0.2
 (Enter /apps/gaussian/g09_c01/g09/l103.exe)

 GradGradGradGradGradGradGradGradGradGradGradGradGradGradGradGradGradGrad
 Berny optimization.
 Red2BG is reusing G-inverse.
 Internal  Forces:  Max     0.009560949 RMS     0.002664766
 Search for a local minimum.
 Step number   1 out of a maximum of   38
 All quantities printed in internal units (Hartrees-Bohrs-Radians)
 RMS Force = .26648D-02 SwitMx=.10000D-02 MixMth= 1
 Mixed Optimization -- RFO/linear search
 Second derivative matrix not updated -- analytic derivatives used.
 ITU=  0
     Eigenvalues ---    0.00175   0.04664   0.04664   0.04854   0.04854
     Eigenvalues ---    0.11838   0.12972   0.12972   0.13253   0.19281
     Eigenvalues ---    0.19281   0.29522   0.34774   0.34774   0.35219
     Eigenvalues ---    0.41415   0.41415   0.42246
 RFO step:  Lambda=-6.17628005D-04 EMin= 1.75460088D-03
 Linear search not attempted -- first point.
 Iteration  1 RMS(Cart)=  0.01150604 RMS(Int)=  0.00001830
 Iteration  2 RMS(Cart)=  0.00001593 RMS(Int)=  0.00000693
 Iteration  3 RMS(Cart)=  0.00000000 RMS(Int)=  0.00000693
 ClnCor:  largest displacement from symmetrization is 2.78D-08 for atom     7.
 Variable       Old X    -DE/DX   Delta X   Delta X   Delta X     New X
                                 (Linear)    (Quad)   (Total)
    R1        2.05946  -0.00217   0.00000  -0.00566  -0.00566   2.05380
    R2        2.05946  -0.00217   0.00000  -0.00566  -0.00566   2.05380
    R3        2.05946  -0.00217   0.00000  -0.00566  -0.00566   2.05380
    R4        2.86675  -0.00956   0.00000  -0.03830  -0.03830   2.82844
    R5        1.94289  -0.00549   0.00000  -0.01270  -0.01270   1.93020
    R6        1.94289  -0.00549   0.00000  -0.01270  -0.01270   1.93020
    R7        1.94289  -0.00549   0.00000  -0.01270  -0.01270   1.93020
    A1        1.93261   0.00018   0.00000  -0.00482  -0.00484   1.92777
    A2        1.93261   0.00018   0.00000  -0.00482  -0.00484   1.92777
    A3        1.88811  -0.00019   0.00000   0.00507   0.00506   1.89317
    A4        1.93261   0.00018   0.00000  -0.00482  -0.00484   1.92777
    A5        1.88811  -0.00019   0.00000   0.00507   0.00506   1.89317
    A6        1.88811  -0.00019   0.00000   0.00507   0.00506   1.89317
    A7        1.94749  -0.00066   0.00000  -0.00258  -0.00259   1.94490
    A8        1.94749  -0.00066   0.00000  -0.00258  -0.00259   1.94490
    A9        1.94749  -0.00066   0.00000  -0.00258  -0.00259   1.94490
   A10        1.87238   0.00070   0.00000   0.00278   0.00277   1.87515
   A11        1.87238   0.00070   0.00000   0.00278   0.00277   1.87515
   A12        1.87238   0.00070   0.00000   0.00278   0.00277   1.87515
    D1        3.14146   0.00000   0.00000   0.00009   0.00009   3.14155
    D2       -1.04733   0.00000   0.00000   0.00009   0.00009  -1.04724
    D3        1.04707   0.00000   0.00000   0.00009   0.00009   1.04716
    D4       -1.04733   0.00000   0.00000   0.00009   0.00009  -1.04724
    D5        1.04707   0.00000   0.00000   0.00009   0.00009   1.04716
    D6        3.14146   0.00000   0.00000   0.00009   0.00009   3.14155
    D7        1.04707   0.00000   0.00000   0.00009   0.00009   1.04716
    D8        3.14146   0.00000   0.00000   0.00009   0.00009   3.14155
    D9       -1.04733   0.00000   0.00000   0.00009   0.00009  -1.04724
         Item               Value     Threshold  Converged?
 Maximum Force            0.009561     0.000002     NO 
 RMS     Force            0.002665     0.000001     NO 
 Maximum Displacement     0.025680     0.000006     NO 
 RMS     Displacement     0.011516     0.000004     NO 
 Predicted change in Energy=-3.095064D-04
 GradGradGradGradGradGradGradGradGradGradGradGradGradGradGradGradGradGrad

 Leave Link  103 at Thu Feb 26 00:56:35 2015, MaxMem= 1073741824 cpu:       0.1
 (Enter /apps/gaussian/g09_c01/g09/l202.exe)
                          Input orientation:                          
 ---------------------------------------------------------------------
 Center     Atomic      Atomic             Coordinates (Angstroms)
 Number     Number       Type             X           Y           Z
 ---------------------------------------------------------------------
      1          6           0        0.000000    0.000000   -0.790866
      2          1           0       -0.095493   -1.026404   -1.135190
      3          1           0       -0.841146    0.595901   -1.135190
      4          1           0        0.936638    0.430503   -1.135190
      5          7           0        0.000000    0.000000    0.705882
      6          1           0        0.088113    0.946676    1.079150
      7          1           0       -0.863902   -0.397030    1.079150
      8          1           0        0.775789   -0.549647    1.079150
 ---------------------------------------------------------------------
                    Distance matrix (angstroms):
                    1          2          3          4          5
     1  C    0.000000
     2  H    1.086823   0.000000
     3  H    1.086823   1.785462   0.000000
     4  H    1.086823   1.785462   1.785462   0.000000
     5  N    1.496748   2.110016   2.110016   2.110016   0.000000
     6  H    2.097837   2.971542   2.426905   2.426877   1.021415
     7  H    2.097837   2.426905   2.426877   2.971542   1.021415
     8  H    2.097837   2.426877   2.971542   2.426905   1.021415
                    6          7          8
     6  H    0.000000
     7  H    1.646779   0.000000
     8  H    1.646779   1.646779   0.000000
 Stoichiometry    CH6N(1+)
 Framework group  C3[C3(CN),X(H6)]
 Deg. of freedom     6
 Full point group                 C3      NOp   3
 RotChk:  IX=0 Diff= 0.00D+00
 Largest Abelian subgroup         C1      NOp   1
 Largest concise Abelian subgroup C1      NOp   1
                         Standard orientation:                         
 ---------------------------------------------------------------------
 Center     Atomic      Atomic             Coordinates (Angstroms)
 Number     Number       Type             X           Y           Z
 ---------------------------------------------------------------------
      1          6           0        0.000000    0.000000   -0.792332
      2          1           0        1.026404   -0.095493   -1.136656
      3          1           0       -0.595901   -0.841146   -1.136656
      4          1           0       -0.430503    0.936638   -1.136656
      5          7           0        0.000000    0.000000    0.704416
      6          1           0       -0.946676    0.088114    1.077684
      7          1           0        0.397030   -0.863902    1.077684
      8          1           0        0.549647    0.775789    1.077684
 ---------------------------------------------------------------------
 Rotational constants (GHZ):     84.9959505     20.3195519     20.3195519
 Leave Link  202 at Thu Feb 26 00:56:35 2015, MaxMem= 1073741824 cpu:       0.0
 (Enter /apps/gaussian/g09_c01/g09/l301.exe)
 Standard basis: Aug-CC-pVTZ (5D, 7F)
 Ernie: Thresh=  0.10000D-02 Tol=  0.10000D-05 Strict=F.
 Ernie:  6 primitive shells out of 126 were deleted.
 There are   230 symmetry adapted basis functions of A   symmetry.
 Integral buffers will be    131072 words long.
 Raffenetti 2 integral format.
 Two-electron integral symmetry is turned on.
   230 basis functions,   306 primitive gaussians,   260 cartesian basis functions
     9 alpha electrons        9 beta electrons
       nuclear repulsion energy        47.9959695965 Hartrees.
 IExCor= 1009 DFT=T Ex+Corr=PBE1PBE ExCW=0 ScaHFX=  0.250000
 ScaDFX=  0.750000  0.750000  1.000000  1.000000 ScalE2=  1.000000  1.000000
 IRadAn=      5 IRanWt=     -1 IRanGd=            0 ICorTp=0
 NAtoms=    8 NActive=    8 NUniq=    4 SFac= 4.00D+00 NAtFMM=   60 NAOKFM=F Big=F
 Leave Link  301 at Thu Feb 26 00:56:35 2015, MaxMem= 1073741824 cpu:       0.3
 (Enter /apps/gaussian/g09_c01/g09/l302.exe)
 NPDir=0 NMtPBC=     1 NCelOv=     1 NCel=       1 NClECP=     1 NCelD=      1
         NCelK=      1 NCelE2=     1 NClLst=     1 CellRange=     0.0.
 One-electron integrals computed using PRISM.
 NBasis=   230 RedAO= T  NBF=   230
 NBsUse=   230 1.00D-06 NBFU=   230
 Precomputing XC quadrature grid using
 IXCGrd= 2 IRadAn=           5 IRanWt=          -1 IRanGd=           0 AccXCQ= 0.00D+00.
 NRdTot=     686 NPtTot=      184910 NUsed=      189829 NTot=      189861
 NSgBfM=   260   260   260   260   260 NAtAll=     8     8.
 Leave Link  302 at Thu Feb 26 00:56:35 2015, MaxMem= 1073741824 cpu:       1.9
 (Enter /apps/gaussian/g09_c01/g09/l303.exe)
 DipDrv:  MaxL=1.
 Leave Link  303 at Thu Feb 26 00:56:35 2015, MaxMem= 1073741824 cpu:       0.2
 (Enter /apps/gaussian/g09_c01/g09/l401.exe)
 Initial guess read from the read-write file.
 B after Tr=     0.000000    0.000000    0.000000
         Rot=    1.000000    0.000000    0.000000    0.000000 Ang=   0.00 deg.
 Guess basis will be translated and rotated to current coordinates.
 Initial guess orbital symmetries:
       Occupied  (A) (A) (A) (A) (E) (E) (A) (E) (E)
       Virtual   (A) (A) (E) (E) (E) (E) (A) (A) (E) (E) (A) (E)
                 (E) (A) (E) (E) (E) (E) (A) (E) (E) (A) (A) (A)
                 (E) (E) (A) (E) (E) (E) (E) (A) (E) (E) (A) (E)
                 (E) (A) (A) (E) (E) (A) (E) (E) (E) (E) (A) (E)
                 (E) (A) (A) (E) (E) (A) (E) (E) (A) (E) (E) (A)
                 (E) (E) (A) (A) (E) (E) (E) (E) (A) (A) (E) (E)
                 (E) (E) (A) (E) (E) (A) (E) (E) (E) (E) (E) (E)
                 (A) (E) (E) (A) (A) (E) (E) (A) (E) (E) (E) (E)
                 (A) (E) (E) (A) (A) (E) (E) (A) (A) (E) (E) (A)
                 (E) (E) (A) (E) (E) (E) (E) (A) (A) (E) (E) (A)
                 (E) (E) (E) (E) (A) (E) (E) (A) (E) (E) (A) (A)
                 (E) (E) (A) (A) (E) (E) (A) (E) (E) (A) (E) (E)
                 (A) (E) (E) (A) (E) (E) (E) (E) (A) (E) (E) (A)
                 (A) (E) (E) (E) (E) (E) (E) (A) (A) (E) (E) (A)
                 (A) (E) (E) (A) (E) (E) (E) (E) (E) (E) (A) (A)
                 (E) (E) (A) (E) (E) (E) (E) (A) (A) (E) (E) (A)
                 (A) (E) (E) (A) (E) (E) (E) (E) (A) (A) (E) (E)
                 (E) (E) (A) (A) (E) (E) (A) (A) (E) (E) (A) (E)
                 (E) (E) (E) (A) (A)
 The electronic state of the initial guess is 1-A.
 Generating alternative initial guess.
 Harris functional with IExCor= 1009 diagonalized for initial guess.
 ExpMin= 2.53D-02 ExpMax= 1.14D+04 ExpMxC= 3.89D+02 IAcc=3 IRadAn=         5 AccDes= 0.00D+00
 HarFok:  IExCor= 1009 AccDes= 0.00D+00 IRadAn=         5 IDoV= 1
 ScaDFX=  1.000000  1.000000  1.000000  1.000000
 FoFCou: FMM=F IPFlag=           0 FMFlag=      100000 FMFlg1=           0
         NFxFlg=           0 DoJE=T BraDBF=F KetDBF=T FulRan=T
         Omega=  0.000000  0.000000  1.000000  0.000000  0.000000 ICntrl=     500 IOpCl=  0
         NMat0=    1 NMatS0=    1 NMatT0=    0 NMatD0=    1 NMtDS0=    0 NMtDT0=    0
         I1Cent=           4 NGrid=           0.
 Petite list used in FoFCou.
 DSYEVD returned Info=       27026 IAlg= 4 N=   230 NDim=   230 NE2=     4667847 trying DSYEV.
 Harris En= -96.2294837489178    
 Leave Link  401 at Thu Feb 26 00:56:36 2015, MaxMem= 1073741824 cpu:       6.5
 (Enter /apps/gaussian/g09_c01/g09/l502.exe)
 Closed shell SCF:
 Requested convergence on RMS density matrix=1.00D-08 within 128 cycles.
 Requested convergence on MAX density matrix=1.00D-06.
 Requested convergence on             energy=1.00D-06.
 No special actions if energy rises.
 Using DIIS extrapolation, IDIIS=  1040.
 Integral symmetry usage will be decided dynamically.
       189744 words used for storage of precomputed grid.
 Keep R1 ints in memory in canonical form, NReq=584943911.
 IEnd=      414822 IEndB=      414822 NGot=  1073741824 MDV=   497772060
 LenX=   497772060 LenY=   497704019
 Symmetry not used in FoFDir.
 MinBra= 0 MaxBra= 3 Meth= 1.
 IRaf=       0 NMat=   1 IRICut=       1 DoRegI=T DoRafI=F ISym2E= 0 JSym2E=0.

 Cycle   1  Pass 1  IDiag  1:
 E= -96.1352311806416    
 DIIS: error= 1.14D-03 at cycle   1 NSaved=   1.
 NSaved= 1 IEnMin= 1 EnMin= -96.1352311806416     IErMin= 1 ErrMin= 1.14D-03
 ErrMax= 1.14D-03 EMaxC= 1.00D-01 BMatC= 1.80D-04 BMatP= 1.80D-04
 IDIUse=3 WtCom= 9.89D-01 WtEn= 1.14D-02
 Coeff-Com:  0.100D+01
 Coeff-En:   0.100D+01
 Coeff:      0.100D+01
 Gap=     0.492 Goal=   None    Shift=    0.000
 DSYEVD returned Info=       27026 IAlg= 4 N=   230 NDim=   230 NE2=     2163929 trying DSYEV.
 GapD=    0.492 DampG=2.000 DampE=1.000 DampFc=2.0000 IDamp=-1.
 RMSDP=5.81D-05 MaxDP=2.44D-03              OVMax= 4.05D-03

 Cycle   2  Pass 1  IDiag  1:
 E= -96.1353423808809     Delta-E=       -0.000111200239 Rises=F Damp=F
 DIIS: error= 3.67D-04 at cycle   2 NSaved=   2.
 NSaved= 2 IEnMin= 2 EnMin= -96.1353423808809     IErMin= 2 ErrMin= 3.67D-04
 ErrMax= 3.67D-04 EMaxC= 1.00D-01 BMatC= 1.97D-05 BMatP= 1.80D-04
 IDIUse=3 WtCom= 9.96D-01 WtEn= 3.67D-03
 Coeff-Com:  0.150D+00 0.850D+00
 Coeff-En:   0.000D+00 0.100D+01
 Coeff:      0.149D+00 0.851D+00
 Gap=     0.433 Goal=   None    Shift=    0.000
 RMSDP=1.64D-05 MaxDP=6.88D-04 DE=-1.11D-04 OVMax= 1.58D-03

 Cycle   3  Pass 1  IDiag  1:
 E= -96.1353480676245     Delta-E=       -0.000005686744 Rises=F Damp=F
 DIIS: error= 3.14D-04 at cycle   3 NSaved=   3.
 NSaved= 3 IEnMin= 3 EnMin= -96.1353480676245     IErMin= 3 ErrMin= 3.14D-04
 ErrMax= 3.14D-04 EMaxC= 1.00D-01 BMatC= 1.34D-05 BMatP= 1.97D-05
 IDIUse=3 WtCom= 9.97D-01 WtEn= 3.14D-03
 Coeff-Com: -0.119D-01 0.451D+00 0.561D+00
 Coeff-En:   0.000D+00 0.399D+00 0.601D+00
 Coeff:     -0.119D-01 0.451D+00 0.561D+00
 Gap=     0.434 Goal=   None    Shift=    0.000
 DSYEVD returned Info=       27026 IAlg= 4 N=   230 NDim=   230 NE2=     2163929 trying DSYEV.
 RMSDP=7.44D-06 MaxDP=3.10D-04 DE=-5.69D-06 OVMax= 8.26D-04

 Cycle   4  Pass 1  IDiag  1:
 E= -96.1353589053713     Delta-E=       -0.000010837747 Rises=F Damp=F
 DIIS: error= 3.56D-05 at cycle   4 NSaved=   4.
 NSaved= 4 IEnMin= 4 EnMin= -96.1353589053713     IErMin= 4 ErrMin= 3.56D-05
 ErrMax= 3.56D-05 EMaxC= 1.00D-01 BMatC= 8.67D-08 BMatP= 1.34D-05
 IDIUse=1 WtCom= 1.00D+00 WtEn= 0.00D+00
 Coeff-Com: -0.556D-02 0.160D+00 0.213D+00 0.633D+00
 Coeff:     -0.556D-02 0.160D+00 0.213D+00 0.633D+00
 Gap=     0.434 Goal=   None    Shift=    0.000
 DSYEVD returned Info=       27026 IAlg= 4 N=   230 NDim=   230 NE2=     2163929 trying DSYEV.
 RMSDP=8.72D-07 MaxDP=3.73D-05 DE=-1.08D-05 OVMax= 1.33D-04

 Cycle   5  Pass 1  IDiag  1:
 E= -96.1353589721649     Delta-E=       -0.000000066794 Rises=F Damp=F
 DIIS: error= 9.59D-06 at cycle   5 NSaved=   5.
 NSaved= 5 IEnMin= 5 EnMin= -96.1353589721649     IErMin= 5 ErrMin= 9.59D-06
 ErrMax= 9.59D-06 EMaxC= 1.00D-01 BMatC= 1.10D-08 BMatP= 8.67D-08
 IDIUse=1 WtCom= 1.00D+00 WtEn= 0.00D+00
 Coeff-Com: -0.391D-03-0.881D-02-0.492D-02 0.259D+00 0.755D+00
 Coeff:     -0.391D-03-0.881D-02-0.492D-02 0.259D+00 0.755D+00
 Gap=     0.434 Goal=   None    Shift=    0.000
 DSYEVD returned Info=         461 IAlg= 4 N=   230 NDim=   230 NE2=     2163929 trying DSYEV.
 RMSDP=2.98D-07 MaxDP=1.41D-05 DE=-6.68D-08 OVMax= 2.54D-05

 Cycle   6  Pass 1  IDiag  1:
 E= -96.1353589815333     Delta-E=       -0.000000009368 Rises=F Damp=F
 DIIS: error= 1.09D-06 at cycle   6 NSaved=   6.
 NSaved= 6 IEnMin= 6 EnMin= -96.1353589815333     IErMin= 6 ErrMin= 1.09D-06
 ErrMax= 1.09D-06 EMaxC= 1.00D-01 BMatC= 1.24D-10 BMatP= 1.10D-08
 IDIUse=1 WtCom= 1.00D+00 WtEn= 0.00D+00
 Coeff-Com: -0.112D-04-0.509D-02-0.551D-02 0.627D-01 0.200D+00 0.748D+00
 Coeff:     -0.112D-04-0.509D-02-0.551D-02 0.627D-01 0.200D+00 0.748D+00
 Gap=     0.434 Goal=   None    Shift=    0.000
 RMSDP=3.69D-08 MaxDP=2.57D-06 DE=-9.37D-09 OVMax= 3.11D-06

 Cycle   7  Pass 1  IDiag  1:
 E= -96.1353589816414     Delta-E=       -0.000000000108 Rises=F Damp=F
 DIIS: error= 7.60D-08 at cycle   7 NSaved=   7.
 NSaved= 7 IEnMin= 7 EnMin= -96.1353589816414     IErMin= 7 ErrMin= 7.60D-08
 ErrMax= 7.60D-08 EMaxC= 1.00D-01 BMatC= 9.68D-13 BMatP= 1.24D-10
 IDIUse=1 WtCom= 1.00D+00 WtEn= 0.00D+00
 Coeff-Com:  0.991D-05-0.212D-03-0.475D-03-0.190D-02-0.734D-02 0.342D-01
 Coeff-Com:  0.976D+00
 Coeff:      0.991D-05-0.212D-03-0.475D-03-0.190D-02-0.734D-02 0.342D-01
 Coeff:      0.976D+00
 Gap=     0.434 Goal=   None    Shift=    0.000
 RMSDP=5.26D-09 MaxDP=1.66D-07 DE=-1.08D-10 OVMax= 3.01D-07

 SCF Done:  E(RPBE1PBE) =  -96.1353589816     A.U. after    7 cycles
             Convg  =    0.5255D-08             -V/T =  2.0063
 KE= 9.553410828960D+01 PE=-3.139424542500D+02 EE= 7.427701738226D+01
 Leave Link  502 at Thu Feb 26 00:56:54 2015, MaxMem= 1073741824 cpu:     140.7
 (Enter /apps/gaussian/g09_c01/g09/l801.exe)
 Range of M.O.s used for correlation:     1   230
 NBasis=   230 NAE=     9 NBE=     9 NFC=     0 NFV=     0
 NROrb=    230 NOA=     9 NOB=     9 NVA=   221 NVB=   221

 **** Warning!!: The largest alpha MO coefficient is  0.57014207D+02

 Leave Link  801 at Thu Feb 26 00:56:54 2015, MaxMem= 1073741824 cpu:       0.1
 (Enter /apps/gaussian/g09_c01/g09/l1002.exe)
 Minotr:  Closed shell wavefunction.
          Direct CPHF calculation.
          Differentiating once with respect to electric field.
                with respect to dipole field.
          Electric field/nuclear overlap derivatives assumed to be zero.
          Using symmetry in CPHF.
          Requested convergence is 1.0D-08 RMS, and 1.0D-07 maximum.
          Secondary convergence is 1.0D-12 RMS, and 1.0D-12 maximum.
          NewPWx=F KeepS1=T KeepF1=T KeepIn=T MapXYZ=F SortEE=F KeepMc=T.
          MDV=    1073741756 using IRadAn=       1.
 Generate precomputed XC quadrature information.
          Keep R1 ints in memory in canonical form, NReq=577583429.
 Symmetry not used in FoFDir.
 MinBra= 0 MaxBra= 3 Meth= 1.
 IRaf=       0 NMat=   1 IRICut=       1 DoRegI=T DoRafI=F ISym2E= 0 JSym2E=0.
          Solving linear equations simultaneously, MaxMat=       0.
          There are     3 degrees of freedom in the 1st order CPHF.  IDoFFX=0.
      3 vectors produced by pass  0 Test12= 6.63D-14 3.33D-08 XBig12= 9.67D+00 1.24D+00.
 AX will form     3 AO Fock derivatives at one time.
      3 vectors produced by pass  1 Test12= 6.63D-14 3.33D-08 XBig12= 5.60D-01 2.51D-01.
      3 vectors produced by pass  2 Test12= 6.63D-14 3.33D-08 XBig12= 1.17D-01 9.24D-02.
      3 vectors produced by pass  3 Test12= 6.63D-14 3.33D-08 XBig12= 4.65D-03 1.72D-02.
      3 vectors produced by pass  4 Test12= 6.63D-14 3.33D-08 XBig12= 9.70D-04 6.47D-03.
      3 vectors produced by pass  5 Test12= 6.63D-14 3.33D-08 XBig12= 3.19D-05 1.46D-03.
      3 vectors produced by pass  6 Test12= 6.63D-14 3.33D-08 XBig12= 1.34D-06 3.16D-04.
      3 vectors produced by pass  7 Test12= 6.63D-14 3.33D-08 XBig12= 2.24D-08 5.31D-05.
      1 vectors produced by pass  8 Test12= 6.63D-14 3.33D-08 XBig12= 8.31D-11 2.68D-06.
      1 vectors produced by pass  9 Test12= 6.63D-14 3.33D-08 XBig12= 1.62D-13 1.25D-07.
 Inverted reduced A of dimension    26 with in-core refinement.
 End of Minotr Frequency-dependent properties file   721 does not exist.
 End of Minotr Frequency-dependent properties file   722 does not exist.
 Leave Link 1002 at Thu Feb 26 00:57:34 2015, MaxMem= 1073741824 cpu:     315.6
 (Enter /apps/gaussian/g09_c01/g09/l1101.exe)
 Using compressed storage, NAtomX=     8.
 Will process   9 centers per pass.
 Leave Link 1101 at Thu Feb 26 00:57:34 2015, MaxMem= 1073741824 cpu:       2.0
 (Enter /apps/gaussian/g09_c01/g09/l1102.exe)
 Symmetrizing basis deriv contribution to polar:
 IMax=3 JMax=2 DiffMx= 0.00D+00
 Leave Link 1102 at Thu Feb 26 00:57:34 2015, MaxMem= 1073741824 cpu:       0.3
 (Enter /apps/gaussian/g09_c01/g09/l1110.exe)
 Forming Gx(P) for the SCF density, NAtomX=     8.
 Integral derivatives from FoFDir/FoFCou, PRISM(SPDF).
 Do as many integral derivatives as possible in FoFDir.
 G2DrvN: MDV=    1073741656.
 G2DrvN: will do     9 centers at a time, making    1 passes doing MaxLOS=3.
 Calling FoFCou, ICntrl=  3107 FMM=F I1Cent=   0 AccDes= 0.00D+00.
 FoFCou: FMM=F IPFlag=           0 FMFlag=      100000 FMFlg1=           0
         NFxFlg=           0 DoJE=F BraDBF=F KetDBF=F FulRan=T
         Omega=  0.000000  0.000000  1.000000  0.000000  0.000000 ICntrl=    3107 IOpCl=  0
         NMat0=    1 NMatS0=    1 NMatT0=    0 NMatD0=    4 NMtDS0=    3 NMtDT0=    0
         I1Cent=           0 NGrid=           0.
 Petite list used in FoFCou.
 FoFDir/FoFCou used for L=0 through L=3.
 End of G2Drv Frequency-dependent properties file   721 does not exist.
 End of G2Drv Frequency-dependent properties file   722 does not exist.
 Leave Link 1110 at Thu Feb 26 00:58:18 2015, MaxMem= 1073741824 cpu:     351.8
 (Enter /apps/gaussian/g09_c01/g09/l1002.exe)
 Minotr:  Closed shell wavefunction.
          IDoAtm=11111111
          Direct CPHF calculation.
          Differentiating once with respect to electric field.
                with respect to dipole field.
          Differentiating once with respect to nuclear coordinates.
          Using symmetry in CPHF.
          Requested convergence is 1.0D-08 RMS, and 1.0D-07 maximum.
          Secondary convergence is 1.0D-12 RMS, and 1.0D-12 maximum.
          NewPWx=T KeepS1=F KeepF1=F KeepIn=T MapXYZ=F SortEE=F KeepMc=T.
          MDV=    1073741740 using IRadAn=       1.
 Generate precomputed XC quadrature information.
          Keep R1 ints in memory in canonical form, NReq=577583597.
 Symmetry not used in FoFDir.
 MinBra= 0 MaxBra= 3 Meth= 1.
 IRaf=       0 NMat=   1 IRICut=       1 DoRegI=T DoRafI=F ISym2E= 0 JSym2E=0.
          Solving linear equations simultaneously, MaxMat=       0.
          There are    15 degrees of freedom in the 1st order CPHF.  IDoFFX=4.
 Will reuse    3 saved solutions.
     12 vectors produced by pass  0 Test12= 1.33D-14 6.67D-09 XBig12= 7.37D-02 8.19D-02.
 AX will form    12 AO Fock derivatives at one time.
     12 vectors produced by pass  1 Test12= 1.33D-14 6.67D-09 XBig12= 4.75D-03 1.86D-02.
     12 vectors produced by pass  2 Test12= 1.33D-14 6.67D-09 XBig12= 4.00D-05 1.68D-03.
     12 vectors produced by pass  3 Test12= 1.33D-14 6.67D-09 XBig12= 2.99D-07 1.18D-04.
     12 vectors produced by pass  4 Test12= 1.33D-14 6.67D-09 XBig12= 8.73D-10 8.01D-06.
     10 vectors produced by pass  5 Test12= 1.33D-14 6.67D-09 XBig12= 1.79D-12 3.53D-07.
      3 vectors produced by pass  6 Test12= 1.33D-14 6.67D-09 XBig12= 3.12D-15 1.52D-08.
 Inverted reduced A of dimension    73 with in-core refinement.
 FullF1:  Do perturbations    1 to    15.
 Isotropic polarizability for W=    0.000000       20.11 Bohr**3.
 FullF1:  Do perturbations    1 to     6.
 End of Minotr Frequency-dependent properties file   721 does not exist.
 End of Minotr Frequency-dependent properties file   722 does not exist.
 Leave Link 1002 at Thu Feb 26 00:59:21 2015, MaxMem= 1073741824 cpu:     500.4
 (Enter /apps/gaussian/g09_c01/g09/l701.exe)
 Compute integral second derivatives.
 ... and contract with generalized density number  0.
 Leave Link  701 at Thu Feb 26 00:59:21 2015, MaxMem= 1073741824 cpu:       2.1
 (Enter /apps/gaussian/g09_c01/g09/l702.exe)
 L702 exits ... SP integral derivatives will be done elsewhere.
 Leave Link  702 at Thu Feb 26 00:59:21 2015, MaxMem= 1073741824 cpu:       0.1
 (Enter /apps/gaussian/g09_c01/g09/l703.exe)
 Compute integral second derivatives, UseDBF=F ICtDFT=           0.
 Integral derivatives from FoFDir, PRISM(SPDF).
 Calling FoFJK, ICntrl=    100127 FMM=F ISym2X=1 I1Cent= 0 IOpClX= 0 NMat=1 NMatS=1 NMatT=0.
 FoFCou: FMM=F IPFlag=           0 FMFlag=      100000 FMFlg1=         800
         NFxFlg=           0 DoJE=F BraDBF=F KetDBF=F FulRan=T
         Omega=  0.000000  0.000000  1.000000  0.000000  0.000000 ICntrl=  100127 IOpCl=  0
         NMat0=    1 NMatS0=    1 NMatT0=    0 NMatD0=    1 NMtDS0=    0 NMtDT0=    0
         I1Cent=           0 NGrid=           0.
 Petite list used in FoFCou.
 Leave Link  703 at Thu Feb 26 01:00:14 2015, MaxMem= 1073741824 cpu:     425.0
 (Enter /apps/gaussian/g09_c01/g09/l716.exe)
 Dipole        =-1.11230300D-14 3.63951423D-15 8.59580803D-01
 Polarizability= 1.91131204D+01-3.85086325D-06 1.91131385D+01
                -3.35685735D-06 1.83156555D-05 2.20998084D+01
 HyperPolar    = 1.66208077D+00-4.75200599D-01-1.66413557D+00
                 4.74943737D-01-2.52436466D+00-1.78372766D-04
                -2.52438490D+00 9.34575588D-05 3.67836513D-04
                 6.95460425D+00
 ***** Axes restored to original set *****
 -------------------------------------------------------------------
 Center     Atomic                   Forces (Hartrees/Bohr)
 Number     Number              X              Y              Z
 -------------------------------------------------------------------
      1        6           0.000000000    0.000000000   -0.000548556
      2        1          -0.000001328   -0.000014238   -0.000011069
      3        1          -0.000011666    0.000008269   -0.000011069
      4        1           0.000012995    0.000005969   -0.000011069
      5        7           0.000000000    0.000000000    0.000387224
      6        1           0.000008707    0.000095006    0.000064846
      7        1          -0.000086631   -0.000039963    0.000064846
      8        1           0.000077924   -0.000055044    0.000064846
 -------------------------------------------------------------------
 Cartesian Forces:  Max     0.000548556 RMS     0.000143143
 Force constants in Cartesian coordinates: 
                1             2             3             4             5 
      1  0.631711D+00
      2  0.000000D+00  0.631711D+00
      3  0.000000D+00  0.000000D+00  0.432241D+00
      4 -0.522810D-01 -0.242304D-01 -0.793288D-02  0.483508D-01
[...]
      5        7           0.000000000    0.000000000   -0.000000061
      6        1          -0.000000059    0.000000045    0.000000019
      7        1          -0.000000010   -0.000000073    0.000000019
      8        1           0.000000068    0.000000028    0.000000019
 -------------------------------------------------------------------
 Cartesian Forces:  Max     0.000000073 RMS     0.000000038
 Force constants in Cartesian coordinates: 
                1             2             3             4             5 
      1  0.631821D+00
      2  0.000000D+00  0.631821D+00
      3  0.000000D+00  0.000000D+00  0.430242D+00
      4 -0.522869D-01 -0.242397D-01 -0.792760D-02  0.483532D-01
      5 -0.242398D-01 -0.310555D+00 -0.851756D-01  0.257921D-01  0.323158D+00
      6 -0.651275D-02 -0.699686D-01 -0.728217D-01  0.813292D-02  0.873826D-01
      7 -0.224995D+00  0.123953D+00 -0.698004D-01  0.414640D-02 -0.352876D-02
      8  0.123953D+00 -0.137846D+00  0.494533D-01  0.230282D-01 -0.125859D-01
      9 -0.573382D-01  0.406245D-01 -0.728217D-01  0.915860D-02 -0.437412D-02
     10 -0.266980D+00 -0.997131D-01  0.777281D-01  0.406941D-04  0.115833D-02
     11 -0.997134D-01 -0.958616D-01  0.357223D-01 -0.253987D-01 -0.848020D-02
     12  0.638510D-01  0.293440D-01 -0.728218D-01 -0.980840D-02 -0.260932D-02
     13 -0.970689D-01  0.000000D+00  0.000000D+00 -0.828462D-03  0.708953D-03
     14  0.000000D+00 -0.970686D-01  0.000000D+00  0.708855D-03  0.672536D-02
     15  0.000000D+00  0.000000D+00 -0.172276D+00  0.372695D-03  0.400729D-02
     16  0.120664D-03  0.572539D-03 -0.214911D-03  0.370779D-03  0.631774D-04
     17  0.572496D-03  0.621915D-02 -0.231151D-02  0.631397D-04  0.104368D-02
     18 -0.318685D-02 -0.342490D-01 -0.131670D-01  0.210273D-03  0.226039D-02
     19  0.519037D-02  0.235448D-02  0.210921D-02  0.199945D-03  0.302118D-03
     20  0.235447D-02  0.114947D-02  0.969573D-03  0.785599D-03  0.249189D-03
     21  0.312539D-01  0.143646D-01 -0.131668D-01  0.292743D-03 -0.779347D-03
     22  0.419871D-02 -0.292697D-02 -0.189435D-02  0.439657D-05 -0.256074D-03
     23 -0.292700D-02  0.214111D-02  0.134179D-02 -0.739590D-03  0.444894D-03
     24 -0.280671D-01  0.198844D-01 -0.131668D-01 -0.431199D-03 -0.711950D-03
                6             7             8             9            10 
      6  0.879170D-01
      7  0.264446D-02  0.232120D+00
      8  0.979898D-02 -0.131890D+00  0.139391D+00
      9  0.483445D-02  0.716091D-01 -0.507346D-01  0.879170D-01
     10 -0.791198D-03 -0.168464D-01 -0.109081D-01  0.716394D-02  0.276793D+00
     11  0.101186D-01  0.156489D-01  0.840685D-02 -0.718966D-02  0.106098D+00
     12  0.483445D-02 -0.836740D-02 -0.574452D-02  0.483445D-02 -0.797420D-01
     13 -0.347393D-02  0.422301D-02 -0.362534D-02 -0.306001D-01  0.545096D-02
     14 -0.373396D-01 -0.362546D-02  0.167395D-02  0.216783D-01  0.291645D-02
     15 -0.207639D-01  0.328412D-02 -0.232647D-02 -0.207639D-01 -0.365690D-02
     16  0.172964D-03 -0.234117D-03 -0.534993D-03 -0.719965D-03 -0.963657D-04
     17  0.185803D-02 -0.515122D-04  0.683251D-03  0.590849D-03  0.197899D-03
     18 -0.663824D-02 -0.821305D-03  0.136151D-03  0.131873D-02  0.832166D-03
     19 -0.151708D-03  0.765905D-03  0.299933D-03 -0.796084D-03  0.930151D-03
     20 -0.918932D-03 -0.183583D-03 -0.316614D-03  0.483485D-03  0.259776D-03
     21  0.131873D-02 -0.400967D-03  0.729404D-03  0.131921D-02 -0.206269D-02
     22 -0.206682D-04  0.820757D-03 -0.322935D-03  0.152262D-02  0.707873D-03
     23 -0.931171D-03 -0.322973D-03  0.593701D-03 -0.107881D-02 -0.886523D-05
     24  0.131921D-02  0.185242D-02 -0.131230D-02 -0.663824D-02  0.528563D-03
               11            12            13            14            15 
     11  0.947177D-01
     12 -0.366480D-01  0.879170D-01
     13  0.291656D-02  0.340740D-01  0.732710D+00
     14  0.446068D-03  0.156613D-01  0.000000D+00  0.732709D+00
     15 -0.168093D-02 -0.207639D-01  0.000000D+00  0.000000D+00  0.532436D+00
     16  0.681415D-03  0.816752D-03 -0.651673D-01 -0.280916D-01 -0.103895D-01
     17  0.545656D-03  0.447686D-03 -0.280913D-01 -0.364490D+00 -0.111659D+00
     18 -0.174548D-04  0.131921D-02 -0.110073D-01 -0.118303D+00 -0.992895D-01
     19  0.259814D-03 -0.169559D-02 -0.313988D+00 -0.115565D+00  0.101894D+00
     20  0.484307D-03 -0.779226D-03 -0.115565D+00 -0.115670D+00  0.468317D-01
     21 -0.948092D-03 -0.663824D-02  0.107957D+00  0.496187D-01 -0.992894D-01
     22 -0.492346D-03  0.871672D-03 -0.265332D+00  0.143656D+00 -0.915045D-01
     23 -0.258740D-03  0.328083D-03  0.143656D+00 -0.164326D+00  0.648269D-01
     24  0.643196D-03  0.131873D-02 -0.969497D-01  0.686840D-01 -0.992895D-01
               16            17            18            19            20 
     16  0.604986D-01
     17  0.304624D-01  0.385078D+00
     18  0.113436D-01  0.121920D+00  0.105575D+00
     19 -0.476650D-03 -0.134815D-04 -0.578974D-03  0.330314D+00
     20 -0.322267D-01 -0.118090D-01  0.143029D-01  0.125316D+00  0.115262D+00
     21 -0.136851D-01 -0.419644D-02  0.544082D-02 -0.111258D+00 -0.511362D-01
     22  0.498450D-02 -0.313952D-02  0.320834D-02 -0.229363D-01  0.192596D-01
     23  0.290737D-01 -0.172702D-01  0.139499D-01 -0.129536D-01  0.106507D-01
     24  0.126762D-01 -0.665004D-02  0.544082D-02  0.104768D-01 -0.975345D-02
               21            22            23            24 
     21  0.105575D+00
     22 -0.120972D-01  0.277552D+00
     23 -0.765285D-02 -0.155778D+00  0.168025D+00
     24  0.544082D-02  0.999141D-01 -0.707839D-01  0.105575D+00
 Red2BG is reusing G-inverse.
 Force constants in internal coordinates: 
                1             2             3             4             5 
      1  0.354448D+00
      2  0.149001D-02  0.354448D+00
      3  0.149005D-02  0.149001D-02  0.354448D+00
      4  0.328766D-02  0.328766D-02  0.328757D-02  0.286069D+00
      5 -0.149580D-02  0.328133D-03  0.327819D-03  0.572631D-02  0.433511D+00
      6  0.328129D-03  0.327855D-03 -0.149573D-02  0.572624D-02  0.240146D-02
      7  0.327838D-03 -0.149576D-02  0.328125D-03  0.572622D-02  0.240144D-02
      8  0.372374D-02  0.372374D-02 -0.133880D-02 -0.256625D-01  0.367883D-04
      9  0.372373D-02 -0.133879D-02  0.372375D-02 -0.256625D-01  0.369766D-04
     10  0.117426D-02 -0.376413D-02 -0.376397D-02  0.266920D-01  0.255042D-02
     11 -0.133880D-02  0.372376D-02  0.372375D-02 -0.256625D-01  0.986661D-03
     12 -0.376389D-02  0.117425D-02 -0.376413D-02  0.266921D-01 -0.182721D-02
     13 -0.376411D-02 -0.376391D-02  0.117432D-02  0.266921D-01 -0.182618D-02
     14  0.624000D-03  0.946272D-04  0.941545D-04  0.145809D-01 -0.465647D-02
     15  0.945946D-04  0.941625D-04  0.624000D-03  0.145810D-01 -0.433375D-02
     16  0.941325D-04  0.623995D-03  0.946468D-04  0.145809D-01 -0.433313D-02
     17 -0.375450D-03 -0.118573D-03 -0.375325D-03 -0.155960D-01  0.699879D-02
     18 -0.375300D-03 -0.375468D-03 -0.118563D-03 -0.155960D-01  0.700323D-02
     19 -0.118554D-03 -0.375324D-03 -0.375494D-03 -0.155959D-01  0.248797D-03
     20  0.000000D+00 -0.296883D-02  0.296894D-02  0.000000D+00  0.317732D-05
     21  0.111761D-04 -0.299121D-02  0.298007D-02  0.000000D+00  0.278850D-02
     22 -0.112275D-04 -0.298008D-02  0.299131D-02  0.000000D+00 -0.278821D-02
     23  0.298005D-02  0.111677D-04 -0.299124D-02  0.000000D+00  0.465364D-03
     24  0.299131D-02 -0.112180D-04 -0.298012D-02  0.000000D+00  0.325069D-02
     25  0.296891D-02  0.000000D+00 -0.296888D-02  0.000000D+00 -0.232603D-02
     26 -0.298008D-02  0.299131D-02 -0.111963D-04  0.000000D+00 -0.459829D-03
     27 -0.296882D-02  0.296892D-02  0.000000D+00  0.000000D+00  0.232550D-02
     28 -0.299122D-02  0.298005D-02  0.111691D-04  0.000000D+00 -0.325122D-02
                6             7             8             9            10 
      6  0.433511D+00
      7  0.240143D-02  0.433511D+00
      8  0.986641D-03  0.369525D-04  0.525218D-01
      9  0.367662D-04  0.986656D-03  0.119755D-01  0.525218D-01
     10 -0.182719D-02 -0.182616D-02 -0.454663D-01 -0.454641D-01  0.131752D+00
     11  0.369359D-04  0.367696D-04  0.119755D-01  0.119755D-01  0.113894D-01
     12 -0.182613D-02  0.255045D-02 -0.454641D-01  0.113894D-01 -0.245098D-01
     13  0.255044D-02 -0.182720D-02  0.113894D-01 -0.454663D-01 -0.245098D-01
     14 -0.433323D-02 -0.433379D-02 -0.393990D-02 -0.393997D-02  0.171590D-01
     15 -0.465649D-02 -0.433319D-02  0.349621D-02 -0.393991D-02 -0.629944D-02
     16 -0.433376D-02 -0.465644D-02 -0.393997D-02  0.349621D-02 -0.630006D-02
     17  0.700328D-02  0.248818D-03  0.606492D-03  0.347593D-02 -0.461059D-02
     18  0.248834D-03  0.699882D-02  0.347593D-02  0.606392D-03 -0.461030D-02
     19  0.699885D-02  0.700326D-02  0.606404D-03  0.606502D-03  0.434394D-02
     20 -0.232604D-02  0.232552D-02 -0.576576D-02  0.576478D-02  0.110836D-05
     21  0.465332D-03 -0.325124D-02 -0.529636D-02  0.482614D-02  0.152322D-02
     22  0.325071D-02 -0.459829D-03 -0.482712D-02  0.529555D-02 -0.152095D-02
     23 -0.325121D-02  0.278853D-02  0.482614D-02  0.469448D-03  0.731826D-02
     24 -0.459845D-03 -0.278823D-02  0.529554D-02 -0.469194D-03  0.884037D-02
     25  0.232554D-02  0.317403D-05  0.576478D-02  0.000000D+00  0.579620D-02
     26 -0.278822D-02  0.325071D-02 -0.469191D-03 -0.482713D-02 -0.731862D-02
     27  0.315332D-05 -0.232605D-02  0.000000D+00 -0.576577D-02 -0.579652D-02
     28  0.278853D-02  0.465357D-03  0.469450D-03 -0.529636D-02 -0.884068D-02
               11            12            13            14            15 
     11  0.525218D-01
     12 -0.454663D-01  0.131752D+00
     13 -0.454641D-01 -0.245097D-01  0.131752D+00
     14  0.349621D-02 -0.629943D-02 -0.630008D-02  0.100281D+00
     15 -0.393998D-02 -0.630008D-02  0.171591D-01 -0.183338D-01  0.100281D+00
     16 -0.393990D-02  0.171591D-01 -0.629946D-02 -0.183338D-01 -0.183338D-01
     17  0.606400D-03  0.434395D-02 -0.461030D-02 -0.406641D-01 -0.406643D-01
     18  0.606492D-03 -0.461059D-02  0.434396D-02 -0.406643D-01  0.132868D-01
     19  0.347595D-02 -0.461031D-02 -0.461060D-02  0.132868D-01 -0.406641D-01
     20  0.000000D+00 -0.579650D-02  0.579619D-02  0.000000D+00 -0.248053D-02
     21  0.469445D-03 -0.884067D-02  0.731826D-02  0.401947D-02  0.153907D-02
     22 -0.469186D-03 -0.731863D-02  0.884036D-02 -0.401990D-02  0.555890D-02
     23 -0.529636D-02  0.152322D-02 -0.884067D-02  0.153907D-02 -0.555887D-02
     24 -0.482713D-02 -0.152095D-02 -0.731861D-02  0.555887D-02 -0.153926D-02
     25 -0.576576D-02  0.109405D-05 -0.579650D-02 -0.248051D-02  0.248056D-02
     26  0.529555D-02  0.884037D-02 -0.152094D-02 -0.153926D-02 -0.401993D-02
     27  0.576477D-02  0.579621D-02  0.112449D-05  0.248053D-02  0.000000D+00
     28  0.482614D-02  0.731825D-02  0.152323D-02 -0.555884D-02  0.401950D-02
               16            17            18            19            20 
     16  0.100281D+00
     17  0.132868D-01  0.539022D-01
     18 -0.406641D-01  0.943804D-02  0.539022D-01
     19 -0.406643D-01  0.943802D-02  0.943803D-02  0.539021D-01
     20  0.248054D-02 -0.719075D-02  0.719103D-02  0.000000D+00  0.142811D-01
     21 -0.555887D-02  0.604090D-02  0.575151D-03 -0.661570D-02  0.345194D-02
     22 -0.153927D-02 -0.575001D-03 -0.604063D-02  0.661592D-02  0.345202D-02
     23  0.401950D-02 -0.661571D-02  0.604089D-02  0.575145D-03  0.400009D-02
     24 -0.401991D-02  0.661594D-02 -0.574985D-03 -0.604062D-02 -0.682904D-02
     25  0.000000D+00  0.000000D+00 -0.719076D-02  0.719101D-02 -0.682896D-02
     26  0.555888D-02 -0.604062D-02  0.661593D-02 -0.574982D-03  0.400016D-02
     27 -0.248053D-02  0.719103D-02  0.000000D+00 -0.719075D-02 -0.682896D-02
     28  0.153907D-02  0.575132D-03 -0.661572D-02  0.604088D-02 -0.682888D-02
               21            22            23            24            25 
     21  0.149118D-01
     22  0.376741D-02  0.149120D-01
     23 -0.714435D-02 -0.745981D-02  0.149118D-01
     24  0.431554D-02 -0.714442D-02  0.376740D-02  0.149120D-01
     25 -0.682888D-02  0.400016D-02  0.345194D-02  0.345202D-02  0.142811D-01
     26 -0.745981D-02 -0.714443D-02  0.431554D-02 -0.714443D-02 -0.682905D-02
     27  0.400008D-02 -0.682904D-02 -0.682889D-02  0.400016D-02 -0.682897D-02
     28 -0.714434D-02  0.431554D-02 -0.714435D-02 -0.745980D-02  0.400008D-02
               26            27            28 
     26  0.149120D-01
     27  0.345202D-02  0.142811D-01
     28  0.376740D-02  0.345195D-02  0.149118D-01
 Leave Link  716 at Thu Feb 26 01:07:23 2015, MaxMem= 1073741824 cpu:       0.1
 (Enter /apps/gaussian/g09_c01/g09/l9999.exe)
 1\1\GINC-CX1-1-9-2\Freq\RPBE1PBE\Aug-CC-pVTZ\C1H6N1(1+)\JMF02\26-Feb-2
 015\0\\#p opt(VeryTight,CalcAll,Raman) Integral(Grid=UltraFine) PBE1PB
 E/AUG-cc-pVTZ\\Autjob by noodles.sh | Great noodly basis sets\\1,1\C,-
 0.0000000526,0.0000000526,-0.7915784618\H,-0.09551508,-1.0265227532,-1
 .1355710056\H,-0.8412373664,0.5959798957,-1.1355710056\H,0.9367522885,
 0.4305430154,-1.1355710056\N,-0.0000000526,0.0000000526,0.7063308726\H
 ,0.0881124479,0.9467965738,1.0796198615\H,-0.8640061425,-0.3970905441,
 1.0796198615\H,0.7758935367,-0.5497058718,1.0796198615\\Version=EM64L-
 G09RevC.01\State=1-A\HF=-96.1353597\RMSD=4.018e-09\RMSF=3.791e-08\Zero
 Point=0.0795452\Thermal=0.0830041\Dipole=0.,0.,0.8591708\DipoleDeriv=0
 .078266,0.0000016,0.0000025,0.0000002,0.0782639,0.0000018,-0.0000011,-
 0.0000013,0.5173347,0.1220182,-0.007679,0.0010415,-0.0076781,0.0402013
 ,0.0111985,0.0033557,0.0360604,0.0553679,0.0673052,0.0392667,0.0091773
 ,0.0392665,0.0949136,-0.0065015,0.0295516,-0.0209364,0.055368,0.054004
 1,-0.0315891,-0.0102205,-0.0315881,0.1082135,-0.0046979,-0.0329066,-0.
 0151239,0.0553683,-0.1502101,0.0000016,0.0000026,0.0000021,-0.1502098,
 0.0000021,-0.0000025,0.0000017,-0.3645404,0.2470902,0.0054657,0.004241
 9,0.0054662,0.3053207,0.0455695,0.0032591,0.0350155,0.2270325,0.295497
 3,0.0224809,-0.0415862,0.0224813,0.2569144,-0.0191119,-0.0319528,-0.01
 4685,0.2270335,0.2860298,-0.0279478,0.0373434,-0.0279479,0.2663822,-0.
 0264586,0.0286948,-0.0203308,0.2270332\Polar=19.1178797,0.000004,19.11
 78615,0.0000182,0.0000033,22.1172071\PolarDeriv=-0.8782062,-3.0717816,
 0.8782479,2.227524,-0.0000945,-0.0003484,-3.0710803,0.8780686,3.072147
 ,0.0002471,2.2275982,0.0002989,2.4800499,0.0001417,2.4809177,-0.000057
 ,0.0000516,-3.0905813,-0.2054214,-0.6089389,-0.4541727,-0.8133525,-0.1
 105468,-0.2242362,-1.0603954,-0.4113124,-6.0289481,-0.1101606,-1.98363
 42,-2.4047612,-0.7925665,-0.0818544,-1.6643793,-0.1342666,-1.4406234,-
 1.5118706,-3.904606,1.8357181,-1.9049357,-1.5966856,0.5618911,-1.96962
 92,2.0972787,-1.5356279,2.0166605,0.5618859,-1.2019447,1.3962821,-1.37
 47726,0.4183277,-1.0814391,-1.1806946,0.8365713,-1.5125173,4.9143813,1
 .5866678,1.5550558,-1.7861994,-0.4513949,2.1939072,1.7756189,1.1429519
 ,1.1983155,-0.4517627,-1.0106252,1.0085515,-1.5174095,-0.3366709,-0.93
 96728,1.3146546,0.6044161,-1.5120765,0.6051311,2.1171549,-0.6052937,-2
 .1936906,0.0003719,0.0002103,2.1171887,-0.6051802,-2.117219,-0.0002387
 ,-2.1938498,-0.0002606,-1.8361513,0.0001912,-1.8361697,0.0002416,-0.00
 03028,1.9006759,0.1936935,0.6257336,0.3159217,0.7552804,0.1187047,0.22
 68338,0.8712213,0.2929523,4.6010323,0.1186866,2.0196371,2.4366764,0.57
 29536,0.0823954,1.4547012,0.1377589,1.4800641,1.9086127,-3.8105394,-1.
 1418712,-1.183185,1.8062678,0.4879281,-2.2235655,-1.244841,-0.9594373,
 -1.0501749,0.4881234,0.9685222,-1.0221489,1.3057002,0.340321,0.7214791
 ,-1.3507326,-0.6208253,1.9087861,3.0855315,-1.3426703,1.39843,1.600883
 3,-0.6068782,1.9967781,-1.4849733,1.1975939,-1.691969,-0.6067993,1.174
 314,-1.414655,1.1621581,-0.4228545,0.8645831,1.2130839,-0.8593645,1.90
 90691\HyperPolar=0.4743893,1.6612027,-0.4746518,-1.6591461,-2.5202038,
 0.0001793,-2.5201803,0.0003679,-0.0000945,6.902646\PG=C03 [C3(C1N1),X(
 H6)]\NImag=0\\0.63182104,-0.00000026,0.63182111,-0.00000011,0.00000005
 ,0.43024188,-0.05228693,-0.02423970,-0.00792760,0.04835324,-0.02423977
 ,-0.31055469,-0.08517563,0.02579211,0.32315761,-0.00651275,-0.06996857
 ,-0.07282175,0.00813292,0.08738259,0.08791702,-0.22499546,0.12395313,-
 0.06980041,0.00414640,-0.00352876,0.00264446,0.23211990,0.12395309,-0.
 13784606,0.04945328,0.02302825,-0.01258591,0.00979898,-0.13188984,0.13
 939095,-0.05733822,0.04062449,-0.07282171,0.00915860,-0.00437412,0.004
 83445,0.07160908,-0.05073461,0.08791702,-0.26697976,-0.09971309,0.0777
 2806,0.00004069,0.00115833,-0.00079120,-0.01684636,-0.01090807,0.00716
 394,0.27679314,-0.09971337,-0.09586158,0.03572228,-0.02539868,-0.00848
 020,0.01011864,0.01564893,0.00840685,-0.00718966,0.10609773,0.09471771
 ,0.06385095,0.02934399,-0.07282179,-0.00980840,-0.00260932,0.00483445,
 -0.00836740,-0.00574452,0.00483445,-0.07974200,-0.03664798,0.08791702,
 -0.09706894,-0.00000035,0.00000012,-0.00082846,0.00070895,-0.00347393,
 0.00422301,-0.00362534,-0.03060010,0.00545096,0.00291656,0.03407401,0.
 73270965,0.00000025,-0.09706863,0.00000037,0.00070885,0.00672536,-0.03
 733963,-0.00362546,0.00167395,0.02167830,0.00291645,0.00044607,0.01566
 130,-0.00000005,0.73270947,0.00000022,0.00000018,-0.17227624,0.0003727
 0,0.00400729,-0.02076389,0.00328412,-0.00232647,-0.02076388,-0.0036569
 0,-0.00168093,-0.02076387,0.00000006,0.00000024,0.53243617,0.00012066,
 0.00057254,-0.00021491,0.00037078,0.00006318,0.00017296,-0.00023412,-0
 .00053499,-0.00071996,-0.00009637,0.00068142,0.00081675,-0.06516733,-0
 .02809156,-0.01038952,0.06049864,0.00057250,0.00621915,-0.00231151,0.0
 0006314,0.00104368,0.00185803,-0.00005151,0.00068325,0.00059085,0.0001
 9790,0.00054566,0.00044769,-0.02809135,-0.36449044,-0.11165863,0.03046
 243,0.38507773,-0.00318685,-0.03424899,-0.01316697,0.00021027,0.002260
 39,-0.00663824,-0.00082131,0.00013615,0.00131873,0.00083217,-0.0000174
 5,0.00131921,-0.01100728,-0.11830301,-0.09928945,0.01134363,0.12192008
 ,0.10557508,0.00519037,0.00235448,0.00210921,0.00019994,0.00030212,-0.
 00015171,0.00076590,0.00029993,-0.00079608,0.00093015,0.00025981,-0.00
 169559,-0.31398759,-0.11556493,0.10189392,-0.00047665,-0.00001348,-0.0
 0057897,0.33031420,0.00235447,0.00114947,0.00096957,0.00078560,0.00024
 919,-0.00091893,-0.00018358,-0.00031661,0.00048348,0.00025978,0.000484
 31,-0.00077923,-0.11556485,-0.11567006,0.04683167,-0.03222672,-0.01180
 900,0.01430289,0.12531565,0.11526217,0.03125390,0.01436460,-0.01316683
 ,0.00029274,-0.00077935,0.00131873,-0.00040097,0.00072940,0.00131921,-
 0.00206269,-0.00094809,-0.00663824,0.10795689,0.04961875,-0.09928940,-
 0.01368513,-0.00419644,0.00544082,-0.11125771,-0.05113617,0.10557508,0
 .00419871,-0.00292697,-0.00189435,0.00000440,-0.00025607,-0.00002067,0
 .00082076,-0.00032293,0.00152262,0.00070787,-0.00049235,0.00087167,-0.
 26533159,0.14365632,-0.09150445,0.00498450,-0.00313952,0.00320834,-0.0
 2293633,0.01925962,-0.01209718,0.27755172,-0.00292700,0.00214111,0.001
 34179,-0.00073959,0.00044489,-0.00093117,-0.00032297,0.00059370,-0.001
 07881,-0.00000887,-0.00025874,0.00032808,0.14365645,-0.16432596,0.0648
 2686,0.02907372,-0.01727015,0.01394989,-0.01295362,0.01065068,-0.00765
 285,-0.15577809,0.16802465,-0.02806710,0.01988437,-0.01316685,-0.00043
 120,-0.00071195,0.00131921,0.00185242,-0.00131230,-0.00663824,0.000528
 56,0.00064320,0.00131873,-0.09694967,0.06868398,-0.09928947,0.01267616
 ,-0.00665004,0.00544082,0.01047679,-0.00975345,0.00544082,0.09991407,-
 0.07078392,0.10557508\\0.,0.,0.00000004,-0.00000006,-0.00000002,-0.000
 00001,0.00000002,0.00000006,-0.00000001,0.00000004,-0.00000004,-0.0000
 0001,0.,0.,0.00000006,0.00000006,-0.00000005,-0.00000002,0.,0.00000007
 ,-0.00000002,-0.00000007,-0.00000003,-0.00000002\\\@


 IF YOU'RE NOT PART OF THE SOLUTION,
 THEN YOU'RE PART OF THE PRECIPITATE.
 Job cpu time:  0 days  1 hours 55 minutes 47.5 seconds.
 File lengths (MBytes):  RWF=     44 Int=      0 D2E=      0 Chk=      4 Scr=      1
 Normal termination of Gaussian 09 at Thu Feb 26 01:07:23 2015.
